     Message from routine get_command_line:
     unexpected argument # 2     :4.0

     Program PWSCF v.6.4.1 starts on 18Apr2022 at 16: 1:47 

     This program is part of the open-source Quantum ESPRESSO suite
     for quantum simulation of materials; please cite
         "P. Giannozzi et al., J. Phys.:Condens. Matter 21 395502 (2009);
         "P. Giannozzi et al., J. Phys.:Condens. Matter 29 465901 (2017);
          URL http://www.quantum-espresso.org", 
     in publications or presentations arising from this work. More details at
     http://www.quantum-espresso.org/quote

     Parallel version (MPI), running on    16 processors

     MPI processes distributed on     1 nodes
     band groups division:  nbgrp     =       4
     R & G space division:  proc/nbgrp/npool/nimage =       4
     Waiting for input...
     Reading input from standard input

     Current dimensions of program PWSCF are:
     Max number of different atomic species (ntypx) = 10
     Max number of k-points (npk) =  40000
     Max angular momentum in pseudopotentials (lmaxx) =  3
     Message from routine input:
     WARNING: "startingwfc" set to atomic+random may spoil restart

     Atomic positions and unit cell read from directory:
     ./bulk_Si.save/


     Subspace diagonalization in iterative solution of the eigenvalue problem:
     a serial algorithm will be used

     Found symmetry operation: I + (  0.0000 -0.5000 -0.5000)
     This is a supercell, fractional translations are disabled

     Parallelization info
     --------------------
     sticks:   dense  smooth     PW     G-vecs:    dense   smooth      PW
     Min         735     296     89                29877     7553    1283
     Max         736     297     90                29880     7554    1286
     Sum        2941    1185    357               119513    30215    5137


     Title: 
     Bulk Silicon                                                               


     bravais-lattice index     =            1
     lattice parameter (alat)  =      10.2612  a.u.
     unit-cell volume          =    1080.4287 (a.u.)^3
     number of atoms/cell      =            8
     number of atomic types    =            1
     number of electrons       =        32.00
     number of Kohn-Sham states=           96
     kinetic-energy cutoff     =      35.0000  Ry
     charge density cutoff     =     350.0000  Ry
     Exchange-correlation      = PBE ( 1  4  3  4 0 0)
     Non magnetic calculation with spin-orbit


     celldm(1)=  10.261213  celldm(2)=   0.000000  celldm(3)=   0.000000
     celldm(4)=   0.000000  celldm(5)=   0.000000  celldm(6)=   0.000000

     crystal axes: (cart. coord. in units of alat)
               a(1) = (   1.000000   0.000000   0.000000 )  
               a(2) = (   0.000000   1.000000   0.000000 )  
               a(3) = (   0.000000   0.000000   1.000000 )  

     reciprocal axes: (cart. coord. in units 2 pi/alat)
               b(1) = (  1.000000  0.000000  0.000000 )  
               b(2) = (  0.000000  1.000000  0.000000 )  
               b(3) = (  0.000000  0.000000  1.000000 )  


     PseudoPot. # 1 for Si read from file:
     input/Si-rel.upf
     MD5 check sum: d8e8ea3dd55db7858206a05f373c9c65
     Pseudo is Norm-conserving + core correction, Zval =  4.0
     Generated using ONCVPSP code by D. R. Hamann
     Using radial grid of 1528 points, 10 beta functions with: 
                l(1) =   0
                l(2) =   0
                l(3) =   1
                l(4) =   1
                l(5) =   1
                l(6) =   1
                l(7) =   2
                l(8) =   2
                l(9) =   2
               l(10) =   2

     atomic species   valence    mass     pseudopotential
        Si             4.00    28.05900     Si( 1.00)

     24 Sym. Ops. (no inversion) found



   Cartesian axes

     site n.     atom                  positions (alat units)
         1           Si  tau(   1) = (   0.0000000   0.0000000   0.0000000  )
         2           Si  tau(   2) = (   0.0000000   0.5000000   0.5000000  )
         3           Si  tau(   3) = (   0.5000000   0.5000000   0.0000000  )
         4           Si  tau(   4) = (   0.5000000   0.0000000   0.5000000  )
         5           Si  tau(   5) = (   0.7500000   0.2500000   0.7500000  )
         6           Si  tau(   6) = (   0.2500000   0.2500000   0.2500000  )
         7           Si  tau(   7) = (   0.2500000   0.7500000   0.7500000  )
         8           Si  tau(   8) = (   0.7500000   0.7500000   0.2500000  )

     number of k points=    84  gaussian smearing, width (Ry)=  0.0050
                       cart. coord. in units 2pi/alat
        k(    1) = (   0.0000000   0.0000000   0.0000000), wk =   0.0119048
        k(    2) = (   0.0000000   0.0384615   0.0000000), wk =   0.0119048
        k(    3) = (   0.0000000   0.0769231   0.0000000), wk =   0.0119048
        k(    4) = (   0.0000000   0.1153846   0.0000000), wk =   0.0119048
        k(    5) = (   0.0000000   0.1538462   0.0000000), wk =   0.0119048
        k(    6) = (   0.0000000   0.1923077   0.0000000), wk =   0.0119048
        k(    7) = (   0.0000000   0.2307692   0.0000000), wk =   0.0119048
        k(    8) = (   0.0000000   0.2692308   0.0000000), wk =   0.0119048
        k(    9) = (   0.0000000   0.3076923   0.0000000), wk =   0.0119048
        k(   10) = (   0.0000000   0.3461539   0.0000000), wk =   0.0119048
        k(   11) = (   0.0000000   0.3846154   0.0000000), wk =   0.0119048
        k(   12) = (   0.0000000   0.4230769   0.0000000), wk =   0.0119048
        k(   13) = (   0.0000000   0.4615385   0.0000000), wk =   0.0119048
        k(   14) = (   0.0000000   0.5000000   0.0000000), wk =   0.0119048
        k(   15) = (   0.0000000   0.5384615   0.0000000), wk =   0.0119048
        k(   16) = (   0.0000000   0.5769231   0.0000000), wk =   0.0119048
        k(   17) = (   0.0000000   0.6153846   0.0000000), wk =   0.0119048
        k(   18) = (   0.0000000   0.6538462   0.0000000), wk =   0.0119048
        k(   19) = (   0.0000000   0.6923077   0.0000000), wk =   0.0119048
        k(   20) = (   0.0000000   0.7307692   0.0000000), wk =   0.0119048
        k(   21) = (   0.0000000   0.7692308   0.0000000), wk =   0.0119048
        k(   22) = (   0.0000000   0.8076923   0.0000000), wk =   0.0119048
        k(   23) = (   0.0000000   0.8461539   0.0000000), wk =   0.0119048
        k(   24) = (   0.0000000   0.8846154   0.0000000), wk =   0.0119048
        k(   25) = (   0.0000000   0.9230769   0.0000000), wk =   0.0119048
        k(   26) = (   0.0000000   0.9615385   0.0000000), wk =   0.0119048
        k(   27) = (   0.0227273   0.0227273   0.0227273), wk =   0.0119048
        k(   28) = (   0.0267857   0.0267857   0.0000000), wk =   0.0119048
        k(   29) = (   0.0312500   0.0000000   0.0312500), wk =   0.0119048
        k(   30) = (   0.0454546   0.0454546   0.0454546), wk =   0.0119048
        k(   31) = (   0.0535714   0.0535714   0.0000000), wk =   0.0119048
        k(   32) = (   0.0625000   0.0000000   0.0625000), wk =   0.0119048
        k(   33) = (   0.0681818   0.0681818   0.0681818), wk =   0.0119048
        k(   34) = (   0.0803571   0.0803571   0.0000000), wk =   0.0119048
        k(   35) = (   0.0909091   0.0909091   0.0909091), wk =   0.0119048
        k(   36) = (   0.0937500   0.0000000   0.0937500), wk =   0.0119048
        k(   37) = (   0.1071429   0.1071429   0.0000000), wk =   0.0119048
        k(   38) = (   0.1136364   0.1136364   0.1136364), wk =   0.0119048
        k(   39) = (   0.1250000   0.0000000   0.1250000), wk =   0.0119048
        k(   40) = (   0.1339286   0.1339286   0.0000000), wk =   0.0119048
        k(   41) = (   0.1363636   0.1363636   0.1363636), wk =   0.0119048
        k(   42) = (   0.1562500   0.0000000   0.1562500), wk =   0.0119048
        k(   43) = (   0.1590909   0.1590909   0.1590909), wk =   0.0119048
        k(   44) = (   0.1607143   0.1607143   0.0000000), wk =   0.0119048
        k(   45) = (   0.1818182   0.1818182   0.1818182), wk =   0.0119048
        k(   46) = (   0.1875000   0.0000000   0.1875000), wk =   0.0119048
        k(   47) = (   0.1875000   0.1875000   0.0000000), wk =   0.0119048
        k(   48) = (   0.2045455   0.2045455   0.2045455), wk =   0.0119048
        k(   49) = (   0.2142857   0.2142857   0.0000000), wk =   0.0119048
        k(   50) = (   0.2187500   0.0000000   0.2187500), wk =   0.0119048
        k(   51) = (   0.2272727   0.2272727   0.2272727), wk =   0.0119048
        k(   52) = (   0.2410714   0.2410714   0.0000000), wk =   0.0119048
        k(   53) = (   0.2500000   0.0000000   0.2500000), wk =   0.0119048
        k(   54) = (   0.2500000   0.2500000   0.2500000), wk =   0.0119048
        k(   55) = (   0.2678571   0.2678571   0.0000000), wk =   0.0119048
        k(   56) = (   0.2727273   0.2727273   0.2727273), wk =   0.0119048
        k(   57) = (   0.2946429   0.2946429   0.0000000), wk =   0.0119048
        k(   58) = (   0.2954546   0.2954546   0.2954546), wk =   0.0119048
        k(   59) = (   0.3181818   0.3181818   0.3181818), wk =   0.0119048
        k(   60) = (   0.3214286   0.3214286   0.0000000), wk =   0.0119048
        k(   61) = (   0.3409091   0.3409091   0.3409091), wk =   0.0119048
        k(   62) = (   0.3482143   0.3482143   0.0000000), wk =   0.0119048
        k(   63) = (   0.3636364   0.3636364   0.3636364), wk =   0.0119048
        k(   64) = (   0.3750000   0.3750000   0.0000000), wk =   0.0119048
        k(   65) = (   0.3863636   0.3863636   0.3863636), wk =   0.0119048
        k(   66) = (   0.4017857   0.4017857   0.0000000), wk =   0.0119048
        k(   67) = (   0.4090909   0.4090909   0.4090909), wk =   0.0119048
        k(   68) = (   0.4285714   0.4285714   0.0000000), wk =   0.0119048
        k(   69) = (   0.4318182   0.4318182   0.4318182), wk =   0.0119048
        k(   70) = (   0.4545455   0.4545455   0.4545455), wk =   0.0119048
        k(   71) = (   0.4553571   0.4553571   0.0000000), wk =   0.0119048
        k(   72) = (   0.4772727   0.4772727   0.4772727), wk =   0.0119048
        k(   73) = (   0.4821429   0.4821429   0.0000000), wk =   0.0119048
        k(   74) = (   0.5000000   0.5000000   0.5000000), wk =   0.0119048
        k(   75) = (   0.5089286   0.5089286   0.0000000), wk =   0.0119048
        k(   76) = (   0.5357143   0.5357143   0.0000000), wk =   0.0119048
        k(   77) = (   0.5625000   0.5625000   0.0000000), wk =   0.0119048
        k(   78) = (   0.5892857   0.5892857   0.0000000), wk =   0.0119048
        k(   79) = (   0.6160714   0.6160714   0.0000000), wk =   0.0119048
        k(   80) = (   0.6428571   0.6428571   0.0000000), wk =   0.0119048
        k(   81) = (   0.6696429   0.6696429   0.0000000), wk =   0.0119048
        k(   82) = (   0.6964286   0.6964286   0.0000000), wk =   0.0119048
        k(   83) = (   0.7232143   0.7232143   0.0000000), wk =   0.0119048
        k(   84) = (   0.7500000   0.7500000   0.0000000), wk =   0.0119048

     Dense  grid:   119513 G-vectors     FFT dimensions: (  64,  64,  64)

     Smooth grid:    30215 G-vectors     FFT dimensions: (  40,  40,  40)

     Estimated max dynamical RAM per process >      61.38 MB

     Estimated total dynamical RAM >     982.07 MB

     The potential is recalculated from file :
     ./bulk_Si.save/charge-density

     Starting wfcs are   64 randomized atomic wfcs +   32 random wfcs

     Band Structure Calculation
     Davidson diagonalization with overlap

     ethr =  3.12E-09,  avg # of iterations = 26.5

     total cpu time spent up to now is      128.8 secs

     End of band structure calculation

          k = 0.0000 0.0000 0.0000 (  3791 PWs)   bands (ev):

    -5.7323  -5.7323  -1.5885  -1.5885  -1.5885  -1.5885  -1.5885  -1.5885
    -1.5885  -1.5885  -1.5885  -1.5885  -1.5885  -1.5885   3.3784   3.3784
     3.3784   3.3784   3.3784   3.3784   3.3784   3.3784   3.3784   3.3784
     3.3784   3.3784   6.2025   6.2025   6.2503   6.2503   6.2503   6.2503
     6.9427   6.9427   6.9427   6.9427   6.9427   6.9427   6.9427   6.9427
     6.9427   6.9427   6.9427   6.9427   8.7675   8.7675   8.8024   8.8024
     8.8024   8.8024   9.5804   9.5804  13.9628  13.9628  13.9628  13.9628
    14.1977  14.1977  16.3271  16.3271  16.3271  16.3271  16.3271  16.3271
    16.3271  16.3271  16.3271  16.3271  16.3271  16.3271  17.2234  17.2234
    17.2234  17.2234  17.2234  17.2234  17.2234  17.2234  17.2234  17.2234
    17.2234  17.2234  17.4839  17.4839  17.4944  17.4944  17.4944  17.4944
    18.7667  18.7667  18.7667  18.7667  18.7667  18.7667  18.7667  18.7667

          k = 0.0000 0.0385 0.0000 (  3783 PWs)   bands (ev):

    -5.7258  -5.7258  -1.8822  -1.8822  -1.5866  -1.5866  -1.5866  -1.5866
    -1.5860  -1.5860  -1.5860  -1.5860  -1.2871  -1.2871   3.3577   3.3577
     3.3577   3.3577   3.3598   3.3598   3.3598   3.3598   3.3840   3.3840
     3.3845   3.3845   6.1680   6.1680   6.2124   6.2124   6.2218   6.2218
     6.8827   6.8827   6.9779   6.9779   6.9779   6.9779   6.9794   6.9794
     6.9794   6.9794   7.0202   7.0202   8.7690   8.7690   8.8213   8.8213
     8.8381   8.8381   9.6241   9.6241  13.9094  13.9094  13.9699  13.9699
    14.2266  14.2266  16.1793  16.1793  16.1857  16.1857  16.2659  16.2659
    16.2659  16.2659  16.2700  16.2700  16.2700  16.2700  17.1397  17.1397
    17.1397  17.1397  17.1424  17.1424  17.1424  17.1424  17.3674  17.3674
    17.3736  17.3736  17.4979  17.4979  17.5057  17.5057  17.5292  17.5292
    18.4079  18.4079  18.8319  18.8319  18.8319  18.8319  18.8329  18.8329

          k = 0.0000 0.0769 0.0000 (  3799 PWs)   bands (ev):

    -5.7064  -5.7064  -2.1676  -2.1676  -1.5805  -1.5805  -1.5805  -1.5805
    -1.5793  -1.5793  -1.5793  -1.5793  -0.9785  -0.9785   3.3003   3.3003
     3.3003   3.3003   3.3044   3.3044   3.3044   3.3044   3.4013   3.4013
     3.4024   3.4024   6.0546   6.0546   6.1196   6.1196   6.1408   6.1408
     6.8399   6.8399   7.0825   7.0825   7.0825   7.0825   7.0854   7.0854
     7.0854   7.0854   7.1156   7.1156   8.7263   8.7263   8.9218   8.9218
     8.9409   8.9409   9.7474   9.7474  13.7599  13.7599  13.9915  13.9915
    14.3121  14.3121  15.8767  15.8767  15.8850  15.8850  16.0654  16.0654
    16.0654  16.0654  16.0735  16.0735  16.0735  16.0735  16.9910  16.9910
    16.9910  16.9910  16.9975  16.9975  16.9975  16.9975  17.5322  17.5322
    17.5394  17.5394  17.6326  17.6326  17.6732  17.6732  17.6809  17.6809
    18.0624  18.0624  18.6405  18.6405  18.9244  18.9244  18.9244  18.9244

          k = 0.0000 0.1154 0.0000 (  3807 PWs)   bands (ev):

    -5.6740  -5.6740  -2.4444  -2.4444  -1.5704  -1.5704  -1.5704  -1.5704
    -1.5687  -1.5687  -1.5687  -1.5687  -0.6633  -0.6633   3.2136   3.2136
     3.2136   3.2136   3.2194   3.2194   3.2194   3.2194   3.4302   3.4302
     3.4318   3.4318   5.8658   5.8658   5.9957   5.9957   6.0189   6.0189
     6.8137   6.8137   7.2291   7.2291   7.2496   7.2496   7.2496   7.2496
     7.2537   7.2537   7.2537   7.2537   8.6521   8.6521   9.0828   9.0828
     9.0999   9.0999   9.9304   9.9304  13.5410  13.5410  14.0273  14.0273
    14.4508  14.4508  15.5307  15.5307  15.5395  15.5395  15.7234  15.7234
    15.7234  15.7234  15.7336  15.7336  15.7336  15.7336  16.8902  16.8902
    16.8902  16.8902  16.8995  16.8995  16.8995  16.8995  17.5886  17.5886
    17.5955  17.5955  17.7306  17.7306  17.7830  17.7830  18.0256  18.0256
    18.0334  18.0334  18.2887  18.2887  18.9802  18.9802  18.9802  18.9802

          k = 0.0000 0.1538 0.0000 (  3799 PWs)   bands (ev):

    -5.6287  -5.6287  -2.7119  -2.7119  -1.5568  -1.5568  -1.5568  -1.5568
    -1.5546  -1.5546  -1.5545  -1.5545  -0.3420  -0.3420   3.1067   3.1067
     3.1067   3.1067   3.1140   3.1140   3.1140   3.1140   3.4708   3.4708
     3.4729   3.4729   5.6254   5.6254   5.8467   5.8467   5.8688   5.8688
     6.8037   6.8037   7.3612   7.3612   7.4703   7.4703   7.4703   7.4703
     7.4752   7.4752   7.4752   7.4752   8.5542   8.5542   9.2883   9.2883
     9.3026   9.3026  10.1475  10.1475  13.2859  13.2859  14.0775  14.0775
    14.6382  14.6382  15.1720  15.1720  15.1807  15.1807  15.2915  15.2915
    15.2915  15.2915  15.3022  15.3022  15.3022  15.3022  16.8400  16.8400
    16.8400  16.8400  16.8508  16.8508  16.8508  16.8508  17.4123  17.4123
    17.6672  17.6672  17.6740  17.6740  17.9205  17.9205  17.9608  17.9608
    18.3891  18.3891  18.3967  18.3967  19.0193  19.0193  19.0193  19.0193

          k = 0.0000 0.1923 0.0000 (  3807 PWs)   bands (ev):

    -5.5706  -5.5706  -2.9699  -2.9699  -1.5404  -1.5404  -1.5404  -1.5404
    -1.5376  -1.5376  -1.5376  -1.5376  -0.0154  -0.0154   2.9889   2.9889
     2.9889   2.9889   2.9975   2.9975   2.9975   2.9975   3.5228   3.5228
     3.5256   3.5256   5.3504   5.3504   5.6812   5.6812   5.7012   5.7012
     6.8096   6.8096   7.5119   7.5119   7.7356   7.7356   7.7356   7.7356
     7.7411   7.7411   7.7411   7.7411   8.4379   8.4379   9.5268   9.5268
     9.5385   9.5385  10.3685  10.3685  13.0304  13.0304  14.1420  14.1420
    14.8096  14.8096  14.8162  14.8162  14.8162  14.8162  14.8182  14.8182
    14.8269  14.8269  14.8269  14.8269  14.8686  14.8686  16.8160  16.8160
    16.8160  16.8160  16.8279  16.8279  16.8279  16.8279  17.1075  17.1075
    17.5396  17.5396  17.7679  17.7679  17.7745  17.7745  18.1518  18.1518
    18.7474  18.7474  18.7539  18.7539  19.0546  19.0546  19.0546  19.0546

          k = 0.0000 0.2308 0.0000 (  3803 PWs)   bands (ev):

    -5.4997  -5.4997  -3.2180  -3.2180  -1.5220  -1.5220  -1.5220  -1.5220
    -1.5187  -1.5187  -1.5186  -1.5186   0.3159   0.3159   2.8684   2.8684
     2.8684   2.8684   2.8779   2.8779   2.8779   2.8779   3.5864   3.5864
     3.5897   3.5897   5.0520   5.0520   5.5064   5.5064   5.5245   5.5245
     6.8308   6.8308   7.6815   7.6815   8.0378   8.0378   8.0378   8.0378
     8.0437   8.0437   8.0437   8.0437   8.3087   8.3087   9.7902   9.7902
     9.7994   9.7994  10.5543  10.5543  12.8192  12.8192  14.2208  14.2208
    14.3220  14.3220  14.3220  14.3220  14.3326  14.3326  14.3326  14.3326
    14.4473  14.4473  14.4555  14.4555  15.1366  15.1366  16.8048  16.8048
    16.8048  16.8048  16.8168  16.8168  16.8177  16.8177  16.8177  16.8177
    17.1482  17.1482  17.8904  17.8904  17.8968  17.8968  18.3496  18.3496
    19.0856  19.0856  19.0896  19.0896  19.0896  19.0896  19.0908  19.0908

          k = 0.0000 0.2692 0.0000 (  3787 PWs)   bands (ev):

    -5.4159  -5.4159  -3.4558  -3.4558  -1.5026  -1.5026  -1.5026  -1.5026
    -1.4987  -1.4987  -1.4987  -1.4987   0.6513   0.6513   2.7517   2.7517
     2.7517   2.7517   2.7622   2.7622   2.7622   2.7622   3.6613   3.6613
     3.6652   3.6652   4.7377   4.7377   5.3279   5.3279   5.3441   5.3441
     6.8669   6.8669   7.8701   7.8701   8.1712   8.1712   8.3707   8.3707
     8.3707   8.3707   8.3768   8.3768   8.3768   8.3768  10.0723  10.0723
    10.0793  10.0793  10.6531  10.6531  12.7076  12.7076  13.8213  13.8213
    13.8213  13.8213  13.8317  13.8317  13.8318  13.8318  14.0867  14.0867
    14.0944  14.0944  14.3140  14.3140  15.4370  15.4370  16.5399  16.5399
    16.7483  16.7483  16.8001  16.8001  16.8001  16.8001  16.8139  16.8139
    16.8139  16.8139  18.0342  18.0342  18.0404  18.0404  18.5523  18.5523
    19.1251  19.1251  19.1251  19.1251  19.1388  19.1388  19.1388  19.1388

          k = 0.0000 0.3077 0.0000 (  3787 PWs)   bands (ev):

    -5.3195  -5.3195  -3.6829  -3.6829  -1.4833  -1.4833  -1.4833  -1.4833
    -1.4789  -1.4789  -1.4789  -1.4789   0.9901   0.9901   2.6445   2.6445
     2.6445   2.6445   2.6556   2.6556   2.6556   2.6556   3.7473   3.7473
     3.7519   3.7519   4.4126   4.4126   5.1496   5.1496   5.1641   5.1641
     6.9173   6.9173   8.0295   8.0295   8.0773   8.0773   8.7289   8.7289
     8.7289   8.7289   8.7351   8.7351   8.7351   8.7351  10.3690  10.3690
    10.3738  10.3738  10.6215  10.6215  12.7420  12.7420  13.3211  13.3211
    13.3211  13.3211  13.3316  13.3316  13.3316  13.3316  13.7282  13.7282
    13.7353  13.7353  14.4214  14.4214  15.7649  15.7649  16.2769  16.2769
    16.3414  16.3414  16.7986  16.7986  16.7986  16.7986  16.8133  16.8133
    16.8133  16.8133  18.1985  18.1985  18.2044  18.2044  18.7606  18.7606
    19.1600  19.1600  19.1600  19.1600  19.1753  19.1753  19.1753  19.1753

          k = 0.0000 0.3462 0.0000 (  3788 PWs)   bands (ev):

    -5.2105  -5.2105  -3.8992  -3.8992  -1.4653  -1.4653  -1.4653  -1.4653
    -1.4605  -1.4605  -1.4605  -1.4605   1.3316   1.3316   2.5510   2.5510
     2.5510   2.5510   2.5627   2.5627   2.5627   2.5627   3.8444   3.8444
     3.8496   3.8496   4.0800   4.0800   4.9743   4.9743   4.9874   4.9874
     6.9815   6.9815   7.8871   7.8871   8.3029   8.3029   9.1078   9.1078
     9.1078   9.1078   9.1139   9.1139   9.1139   9.1139  10.4646  10.4646
    10.6773  10.6773  10.6808  10.6808  12.8265  12.8265  12.8265  12.8265
    12.8370  12.8370  12.8370  12.8370  12.9182  12.9182  13.3729  13.3729
    13.3792  13.3792  14.5431  14.5431  15.9304  15.9304  16.0279  16.0279
    16.1161  16.1161  16.7990  16.7990  16.7990  16.7990  16.8144  16.8144
    16.8144  16.8144  18.3819  18.3819  18.3876  18.3876  18.9767  18.9767
    19.1927  19.1927  19.1927  19.1927  19.2094  19.2094  19.2094  19.2094

          k = 0.0000 0.3846 0.0000 (  3784 PWs)   bands (ev):

    -5.0890  -5.0890  -4.1043  -4.1043  -1.4497  -1.4497  -1.4497  -1.4497
    -1.4446  -1.4446  -1.4446  -1.4446   1.6752   1.6752   2.4746   2.4746
     2.4746   2.4746   2.4869   2.4869   2.4869   2.4869   3.7421   3.7421
     3.9522   3.9522   3.9582   3.9582   4.8041   4.8041   4.8159   4.8159
     7.0587   7.0587   7.7468   7.7468   8.5462   8.5462   9.5024   9.5024
     9.5024   9.5024   9.5083   9.5083   9.5083   9.5083  10.2280  10.2280
    10.9950  10.9950  10.9966  10.9966  12.3422  12.3422  12.3422  12.3422
    12.3530  12.3530  12.3530  12.3530  13.0207  13.0207  13.0262  13.0262
    13.1937  13.1937  14.6793  14.6793  15.5169  15.5169  15.7928  15.7928
    16.4865  16.4865  16.8000  16.8000  16.8000  16.8000  16.8161  16.8161
    16.8161  16.8161  18.5826  18.5826  18.5881  18.5881  18.8581  18.8581
    19.2031  19.2031  19.2212  19.2212  19.2212  19.2212  19.2392  19.2392

          k = 0.0000 0.4231 0.0000 (  3780 PWs)   bands (ev):

    -4.9551  -4.9551  -4.2981  -4.2981  -1.4377  -1.4377  -1.4377  -1.4377
    -1.4323  -1.4323  -1.4323  -1.4323   2.0202   2.0202   2.4182   2.4182
     2.4182   2.4182   2.4308   2.4308   2.4308   2.4308   3.4007   3.4007
     4.0705   4.0705   4.0772   4.0772   4.6405   4.6405   4.6510   4.6510
     7.1482   7.1482   7.6111   7.6111   8.8059   8.8059   9.9046   9.9046
     9.9046   9.9046   9.9097   9.9097   9.9097   9.9097   9.9512   9.9512
    11.3202  11.3202  11.3203  11.3203  11.8762  11.8762  11.8762  11.8762
    11.8877  11.8877  11.8877  11.8877  12.6721  12.6721  12.6767  12.6767
    13.5287  13.5287  14.8294  14.8294  15.1036  15.1036  15.5721  15.5721
    16.8012  16.8012  16.8012  16.8012  16.8176  16.8176  16.8176  16.8176
    16.8720  16.8720  18.4744  18.4744  18.7971  18.7971  18.8025  18.8025
    19.2435  19.2435  19.2435  19.2435  19.2624  19.2624  19.2624  19.2624

          k = 0.0000 0.4615 0.0000 (  3784 PWs)   bands (ev):

    -4.8088  -4.8088  -4.4802  -4.4802  -1.4301  -1.4301  -1.4301  -1.4301
    -1.4246  -1.4246  -1.4246  -1.4246   2.3659   2.3659   2.3836   2.3836
     2.3836   2.3836   2.3963   2.3963   2.3963   2.3963   3.0569   3.0569
     4.1989   4.1989   4.2065   4.2065   4.4845   4.4845   4.4940   4.4940
     7.2493   7.2493   7.4820   7.4820   9.0803   9.0803   9.6593   9.6593
    10.2885  10.2885  10.2885  10.2885  10.2917  10.2917  10.2917  10.2917
    11.4541  11.4541  11.4541  11.4541  11.4675  11.4675  11.4675  11.4675
    11.6507  11.6507  11.6519  11.6519  12.3271  12.3271  12.3307  12.3307
    13.8985  13.8985  14.6925  14.6925  14.9938  14.9938  15.3652  15.3652
    16.8020  16.8020  16.8020  16.8020  16.8187  16.8187  16.8187  16.8187
    17.2688  17.2688  18.0759  18.0759  19.0210  19.0210  19.0262  19.0262
    19.2577  19.2577  19.2577  19.2577  19.2772  19.2772  19.2772  19.2772

          k = 0.0000 0.5000 0.0000 (  3804 PWs)   bands (ev):

    -4.6505  -4.6505  -4.6505  -4.6505  -1.4275  -1.4275  -1.4275  -1.4275
    -1.4219  -1.4219  -1.4219  -1.4219   2.3719   2.3719   2.3719   2.3719
     2.3847   2.3847   2.3847   2.3847   2.7117   2.7117   2.7118   2.7118
     4.3371   4.3371   4.3371   4.3371   4.3456   4.3456   4.3456   4.3456
     7.3609   7.3609   7.3609   7.3609   9.3664   9.3664   9.3664   9.3664
    10.5071  10.5071  10.5071  10.5071  10.5073  10.5073  10.5073  10.5073
    11.2226  11.2226  11.2226  11.2226  11.2390  11.2390  11.2390  11.2390
    11.9865  11.9865  11.9865  11.9865  11.9889  11.9889  11.9889  11.9889
    14.2892  14.2892  14.2892  14.2892  15.1724  15.1724  15.1724  15.1724
    16.8021  16.8021  16.8021  16.8021  16.8190  16.8190  16.8190  16.8190
    17.6718  17.6718  17.6718  17.6718  19.2452  19.2452  19.2453  19.2453
    19.2503  19.2503  19.2504  19.2504  19.2625  19.2625  19.2625  19.2625

          k = 0.0000 0.5385 0.0000 (  3784 PWs)   bands (ev):

    -4.8088  -4.8088  -4.4802  -4.4802  -1.4301  -1.4301  -1.4301  -1.4301
    -1.4246  -1.4246  -1.4246  -1.4246   2.3659   2.3659   2.3836   2.3836
     2.3836   2.3836   2.3963   2.3963   2.3963   2.3963   3.0569   3.0569
     4.1989   4.1989   4.2065   4.2065   4.4845   4.4845   4.4940   4.4940
     7.2493   7.2493   7.4820   7.4820   9.0803   9.0803   9.6593   9.6593
    10.2885  10.2885  10.2885  10.2885  10.2917  10.2917  10.2917  10.2917
    11.4541  11.4541  11.4541  11.4541  11.4675  11.4675  11.4675  11.4675
    11.6507  11.6507  11.6519  11.6519  12.3271  12.3271  12.3307  12.3307
    13.8985  13.8985  14.6925  14.6925  14.9938  14.9938  15.3652  15.3652
    16.8020  16.8020  16.8020  16.8020  16.8187  16.8187  16.8187  16.8187
    17.2688  17.2688  18.0759  18.0759  19.0210  19.0210  19.0262  19.0262
    19.2577  19.2577  19.2577  19.2577  19.2772  19.2772  19.2772  19.2772

          k = 0.0000 0.5769 0.0000 (  3780 PWs)   bands (ev):

    -4.9551  -4.9551  -4.2981  -4.2981  -1.4377  -1.4377  -1.4377  -1.4377
    -1.4323  -1.4323  -1.4323  -1.4323   2.0202   2.0202   2.4182   2.4182
     2.4182   2.4182   2.4308   2.4308   2.4308   2.4308   3.4007   3.4007
     4.0705   4.0705   4.0772   4.0772   4.6405   4.6405   4.6510   4.6510
     7.1482   7.1482   7.6111   7.6111   8.8059   8.8059   9.9046   9.9046
     9.9046   9.9046   9.9097   9.9097   9.9097   9.9097   9.9512   9.9512
    11.3202  11.3202  11.3203  11.3203  11.8762  11.8762  11.8762  11.8762
    11.8877  11.8877  11.8877  11.8877  12.6721  12.6721  12.6767  12.6767
    13.5287  13.5287  14.8294  14.8294  15.1036  15.1036  15.5721  15.5721
    16.8012  16.8012  16.8012  16.8012  16.8176  16.8176  16.8176  16.8176
    16.8720  16.8720  18.4744  18.4744  18.7971  18.7971  18.8025  18.8025
    19.2435  19.2435  19.2435  19.2435  19.2624  19.2624  19.2624  19.2624

          k = 0.0000 0.6154 0.0000 (  3784 PWs)   bands (ev):

    -5.0890  -5.0890  -4.1043  -4.1043  -1.4497  -1.4497  -1.4497  -1.4497
    -1.4446  -1.4446  -1.4446  -1.4446   1.6752   1.6752   2.4746   2.4746
     2.4746   2.4746   2.4869   2.4869   2.4869   2.4869   3.7421   3.7421
     3.9522   3.9522   3.9582   3.9582   4.8041   4.8041   4.8159   4.8159
     7.0587   7.0587   7.7468   7.7468   8.5462   8.5462   9.5024   9.5024
     9.5024   9.5024   9.5083   9.5083   9.5083   9.5083  10.2280  10.2280
    10.9950  10.9950  10.9966  10.9966  12.3422  12.3422  12.3422  12.3422
    12.3530  12.3530  12.3530  12.3530  13.0207  13.0207  13.0262  13.0262
    13.1937  13.1937  14.6793  14.6793  15.5169  15.5169  15.7928  15.7928
    16.4865  16.4865  16.8000  16.8000  16.8000  16.8000  16.8161  16.8161
    16.8161  16.8161  18.5826  18.5826  18.5881  18.5881  18.8581  18.8581
    19.2031  19.2031  19.2212  19.2212  19.2212  19.2212  19.2392  19.2392

          k = 0.0000 0.6538 0.0000 (  3788 PWs)   bands (ev):

    -5.2105  -5.2105  -3.8992  -3.8992  -1.4653  -1.4653  -1.4653  -1.4653
    -1.4605  -1.4605  -1.4605  -1.4605   1.3316   1.3316   2.5510   2.5510
     2.5510   2.5510   2.5627   2.5627   2.5627   2.5627   3.8444   3.8444
     3.8496   3.8496   4.0800   4.0800   4.9743   4.9743   4.9874   4.9874
     6.9815   6.9815   7.8871   7.8871   8.3029   8.3029   9.1078   9.1078
     9.1078   9.1078   9.1139   9.1139   9.1139   9.1139  10.4646  10.4646
    10.6773  10.6773  10.6808  10.6808  12.8265  12.8265  12.8265  12.8265
    12.8370  12.8370  12.8370  12.8370  12.9182  12.9182  13.3729  13.3729
    13.3792  13.3792  14.5431  14.5431  15.9304  15.9304  16.0279  16.0279
    16.1161  16.1161  16.7990  16.7990  16.7990  16.7990  16.8144  16.8144
    16.8144  16.8144  18.3819  18.3819  18.3876  18.3876  18.9767  18.9767
    19.1927  19.1927  19.1927  19.1927  19.2094  19.2094  19.2094  19.2094

          k = 0.0000 0.6923 0.0000 (  3787 PWs)   bands (ev):

    -5.3195  -5.3195  -3.6829  -3.6829  -1.4833  -1.4833  -1.4833  -1.4833
    -1.4789  -1.4789  -1.4789  -1.4789   0.9901   0.9901   2.6445   2.6445
     2.6445   2.6445   2.6556   2.6556   2.6556   2.6556   3.7473   3.7473
     3.7519   3.7519   4.4126   4.4126   5.1496   5.1496   5.1641   5.1641
     6.9173   6.9173   8.0295   8.0295   8.0773   8.0773   8.7289   8.7289
     8.7289   8.7289   8.7351   8.7351   8.7351   8.7351  10.3690  10.3690
    10.3738  10.3738  10.6215  10.6215  12.7420  12.7420  13.3211  13.3211
    13.3211  13.3211  13.3316  13.3316  13.3316  13.3316  13.7282  13.7282
    13.7353  13.7353  14.4214  14.4214  15.7649  15.7649  16.2769  16.2769
    16.3414  16.3414  16.7986  16.7986  16.7986  16.7986  16.8133  16.8133
    16.8133  16.8133  18.1985  18.1985  18.2044  18.2044  18.7606  18.7606
    19.1600  19.1600  19.1600  19.1600  19.1753  19.1753  19.1753  19.1753

          k = 0.0000 0.7308 0.0000 (  3787 PWs)   bands (ev):

    -5.4159  -5.4159  -3.4558  -3.4558  -1.5026  -1.5026  -1.5026  -1.5026
    -1.4987  -1.4987  -1.4987  -1.4987   0.6513   0.6513   2.7517   2.7517
     2.7517   2.7517   2.7622   2.7622   2.7622   2.7622   3.6613   3.6613
     3.6652   3.6652   4.7377   4.7377   5.3279   5.3279   5.3441   5.3441
     6.8669   6.8669   7.8701   7.8701   8.1712   8.1712   8.3707   8.3707
     8.3707   8.3707   8.3768   8.3768   8.3768   8.3768  10.0723  10.0723
    10.0793  10.0793  10.6531  10.6531  12.7076  12.7076  13.8213  13.8213
    13.8213  13.8213  13.8317  13.8317  13.8318  13.8318  14.0867  14.0867
    14.0944  14.0944  14.3140  14.3140  15.4370  15.4370  16.5399  16.5399
    16.7483  16.7483  16.8001  16.8001  16.8001  16.8001  16.8139  16.8139
    16.8139  16.8139  18.0342  18.0342  18.0404  18.0404  18.5523  18.5523
    19.1251  19.1251  19.1251  19.1251  19.1388  19.1388  19.1388  19.1388

          k = 0.0000 0.7692 0.0000 (  3803 PWs)   bands (ev):

    -5.4997  -5.4997  -3.2180  -3.2180  -1.5220  -1.5220  -1.5220  -1.5220
    -1.5187  -1.5187  -1.5186  -1.5186   0.3159   0.3159   2.8684   2.8684
     2.8684   2.8684   2.8779   2.8779   2.8779   2.8779   3.5864   3.5864
     3.5897   3.5897   5.0520   5.0520   5.5064   5.5064   5.5245   5.5245
     6.8308   6.8308   7.6815   7.6815   8.0378   8.0378   8.0378   8.0378
     8.0437   8.0437   8.0437   8.0437   8.3087   8.3087   9.7902   9.7902
     9.7994   9.7994  10.5543  10.5543  12.8192  12.8192  14.2208  14.2208
    14.3220  14.3220  14.3220  14.3220  14.3326  14.3326  14.3326  14.3326
    14.4473  14.4473  14.4555  14.4555  15.1366  15.1366  16.8048  16.8048
    16.8048  16.8048  16.8168  16.8168  16.8177  16.8177  16.8177  16.8177
    17.1482  17.1482  17.8904  17.8904  17.8968  17.8968  18.3496  18.3496
    19.0856  19.0856  19.0896  19.0896  19.0896  19.0896  19.0908  19.0908

          k = 0.0000 0.8077 0.0000 (  3807 PWs)   bands (ev):

    -5.5706  -5.5706  -2.9699  -2.9699  -1.5404  -1.5404  -1.5404  -1.5404
    -1.5376  -1.5376  -1.5376  -1.5376  -0.0154  -0.0154   2.9889   2.9889
     2.9889   2.9889   2.9975   2.9975   2.9975   2.9975   3.5228   3.5228
     3.5256   3.5256   5.3504   5.3504   5.6812   5.6812   5.7012   5.7012
     6.8096   6.8096   7.5119   7.5119   7.7356   7.7356   7.7356   7.7356
     7.7411   7.7411   7.7411   7.7411   8.4379   8.4379   9.5268   9.5268
     9.5385   9.5385  10.3685  10.3685  13.0304  13.0304  14.1420  14.1420
    14.8096  14.8096  14.8162  14.8162  14.8162  14.8162  14.8182  14.8182
    14.8269  14.8269  14.8269  14.8269  14.8686  14.8686  16.8160  16.8160
    16.8160  16.8160  16.8279  16.8279  16.8279  16.8279  17.1075  17.1075
    17.5396  17.5396  17.7679  17.7679  17.7745  17.7745  18.1518  18.1518
    18.7474  18.7474  18.7539  18.7539  19.0546  19.0546  19.0546  19.0546

          k = 0.0000 0.8462 0.0000 (  3799 PWs)   bands (ev):

    -5.6287  -5.6287  -2.7119  -2.7119  -1.5568  -1.5568  -1.5568  -1.5568
    -1.5546  -1.5546  -1.5545  -1.5545  -0.3420  -0.3420   3.1067   3.1067
     3.1067   3.1067   3.1140   3.1140   3.1140   3.1140   3.4708   3.4708
     3.4729   3.4729   5.6254   5.6254   5.8467   5.8467   5.8688   5.8688
     6.8037   6.8037   7.3612   7.3612   7.4703   7.4703   7.4703   7.4703
     7.4752   7.4752   7.4752   7.4752   8.5542   8.5542   9.2883   9.2883
     9.3026   9.3026  10.1475  10.1475  13.2859  13.2859  14.0775  14.0775
    14.6382  14.6382  15.1720  15.1720  15.1807  15.1807  15.2915  15.2915
    15.2915  15.2915  15.3022  15.3022  15.3022  15.3022  16.8400  16.8400
    16.8400  16.8400  16.8508  16.8508  16.8508  16.8508  17.4123  17.4123
    17.6672  17.6672  17.6740  17.6740  17.9205  17.9205  17.9608  17.9608
    18.3891  18.3891  18.3967  18.3967  19.0193  19.0193  19.0193  19.0193

          k = 0.0000 0.8846 0.0000 (  3807 PWs)   bands (ev):

    -5.6740  -5.6740  -2.4444  -2.4444  -1.5704  -1.5704  -1.5704  -1.5704
    -1.5687  -1.5687  -1.5687  -1.5687  -0.6633  -0.6633   3.2136   3.2136
     3.2136   3.2136   3.2194   3.2194   3.2194   3.2194   3.4302   3.4302
     3.4318   3.4318   5.8658   5.8658   5.9957   5.9957   6.0189   6.0189
     6.8137   6.8137   7.2291   7.2291   7.2496   7.2496   7.2496   7.2496
     7.2537   7.2537   7.2537   7.2537   8.6521   8.6521   9.0828   9.0828
     9.0999   9.0999   9.9304   9.9304  13.5410  13.5410  14.0273  14.0273
    14.4508  14.4508  15.5307  15.5307  15.5395  15.5395  15.7234  15.7234
    15.7234  15.7234  15.7336  15.7336  15.7336  15.7336  16.8902  16.8902
    16.8902  16.8902  16.8995  16.8995  16.8995  16.8995  17.5886  17.5886
    17.5955  17.5955  17.7306  17.7306  17.7830  17.7830  18.0256  18.0256
    18.0334  18.0334  18.2887  18.2887  18.9802  18.9802  18.9802  18.9802

          k = 0.0000 0.9231 0.0000 (  3799 PWs)   bands (ev):

    -5.7064  -5.7064  -2.1676  -2.1676  -1.5805  -1.5805  -1.5805  -1.5805
    -1.5793  -1.5793  -1.5793  -1.5793  -0.9785  -0.9785   3.3003   3.3003
     3.3003   3.3003   3.3044   3.3044   3.3044   3.3044   3.4013   3.4013
     3.4024   3.4024   6.0546   6.0546   6.1196   6.1196   6.1408   6.1408
     6.8399   6.8399   7.0825   7.0825   7.0825   7.0825   7.0854   7.0854
     7.0854   7.0854   7.1156   7.1156   8.7263   8.7263   8.9218   8.9218
     8.9409   8.9409   9.7474   9.7474  13.7599  13.7599  13.9915  13.9915
    14.3121  14.3121  15.8767  15.8767  15.8850  15.8850  16.0654  16.0654
    16.0654  16.0654  16.0735  16.0735  16.0735  16.0735  16.9910  16.9910
    16.9910  16.9910  16.9975  16.9975  16.9975  16.9975  17.5322  17.5322
    17.5394  17.5394  17.6326  17.6326  17.6732  17.6732  17.6809  17.6809
    18.0624  18.0624  18.6405  18.6405  18.9244  18.9244  18.9244  18.9244

          k = 0.0000 0.9615 0.0000 (  3783 PWs)   bands (ev):

    -5.7258  -5.7258  -1.8822  -1.8822  -1.5866  -1.5866  -1.5866  -1.5866
    -1.5860  -1.5860  -1.5860  -1.5860  -1.2871  -1.2871   3.3577   3.3577
     3.3577   3.3577   3.3598   3.3598   3.3598   3.3598   3.3840   3.3840
     3.3845   3.3845   6.1680   6.1680   6.2124   6.2124   6.2218   6.2218
     6.8827   6.8827   6.9779   6.9779   6.9779   6.9779   6.9794   6.9794
     6.9794   6.9794   7.0202   7.0202   8.7690   8.7690   8.8213   8.8213
     8.8381   8.8381   9.6241   9.6241  13.9094  13.9094  13.9699  13.9699
    14.2266  14.2266  16.1793  16.1793  16.1857  16.1857  16.2659  16.2659
    16.2659  16.2659  16.2700  16.2700  16.2700  16.2700  17.1397  17.1397
    17.1397  17.1397  17.1424  17.1424  17.1424  17.1424  17.3674  17.3674
    17.3736  17.3736  17.4979  17.4979  17.5057  17.5057  17.5292  17.5292
    18.4079  18.4079  18.8319  18.8319  18.8319  18.8319  18.8329  18.8329

          k = 0.0227 0.0227 0.0227 (  3785 PWs)   bands (ev):

    -5.7255  -5.7255  -1.7613  -1.7613  -1.7613  -1.7613  -1.7612  -1.7612
    -1.4100  -1.4100  -1.4100  -1.4100  -1.4100  -1.4100   3.3495   3.3495
     3.3495   3.3495   3.3495   3.3495   3.3841   3.3841   3.3841   3.3841
     3.3841   3.3841   6.1454   6.1454   6.2144   6.2144   6.2384   6.2384
     6.9255   6.9255   6.9255   6.9255   6.9255   6.9255   7.0162   7.0162
     7.0162   7.0162   7.0162   7.0162   8.7865   8.7865   8.8197   8.8197
     8.8221   8.8221   9.6281   9.6281  13.9385  13.9385  13.9385  13.9385
    14.2280  14.2280  16.2210  16.2210  16.2210  16.2210  16.2210  16.2210
    16.2431  16.2431  16.2431  16.2431  16.2431  16.2431  17.2096  17.2096
    17.2096  17.2096  17.2096  17.2096  17.2228  17.2228  17.2228  17.2228
    17.2228  17.2228  17.4618  17.4618  17.5338  17.5338  17.5405  17.5405
    18.6066  18.6066  18.6066  18.6066  18.6066  18.6066  19.0415  19.0415

          k = 0.0268 0.0268 0.0000 (  3783 PWs)   bands (ev):

    -5.7260  -5.7260  -1.7926  -1.7926  -1.7926  -1.7926  -1.5911  -1.5911
    -1.5817  -1.5817  -1.3785  -1.3785  -1.3785  -1.3785   3.3356   3.3356
     3.3707   3.3708   3.3708   3.3708   3.3726   3.3726   3.3726   3.3726
     3.3835   3.3835   6.1564   6.1564   6.2090   6.2090   6.2402   6.2402
     6.9169   6.9169   6.9169   6.9169   6.9485   6.9485   7.0064   7.0064
     7.0120   7.0120   7.0120   7.0120   8.7824   8.7824   8.8124   8.8124
     8.8301   8.8301   9.6241   9.6241  13.9257  13.9257  13.9549  13.9549
    14.2257  14.2257  16.2060  16.2060  16.2060  16.2060  16.2409  16.2409
    16.2409  16.2409  16.2572  16.2572  16.2900  16.2900  17.1262  17.1262
    17.1452  17.1452  17.2382  17.2382  17.2382  17.2382  17.2756  17.2756
    17.2756  17.2756  17.4794  17.4794  17.5022  17.5022  17.5497  17.5497
    18.5499  18.5499  18.5499  18.5499  18.8411  18.8411  18.8437  18.8437

          k = 0.0313 0.0000 0.0313 (  3787 PWs)   bands (ev):

    -5.7237  -5.7237  -1.8260  -1.8260  -1.8260  -1.8260  -1.5921  -1.5921
    -1.5792  -1.5792  -1.3431  -1.3431  -1.3431  -1.3431   3.3205   3.3205
     3.3681   3.3681   3.3681   3.3681   3.3704   3.3704   3.3704   3.3704
     3.3853   3.3853   6.1357   6.1357   6.1978   6.1978   6.2378   6.2378
     6.9169   6.9169   6.9169   6.9169   6.9506   6.9506   7.0277   7.0277
     7.0277   7.0277   7.0289   7.0289   8.7866   8.7866   8.8162   8.8162
     8.8400   8.8400   9.6402   9.6402  13.9126  13.9126  13.9521  13.9521
    14.2358  14.2358  16.1624  16.1624  16.1624  16.1624  16.2145  16.2145
    16.2145  16.2145  16.2330  16.2330  16.2768  16.2768  17.0933  17.0933
    17.1188  17.1188  17.2396  17.2396  17.2397  17.2397  17.2955  17.2955
    17.2956  17.2956  17.4758  17.4758  17.5061  17.5061  17.5704  17.5704
    18.5192  18.5192  18.5192  18.5192  18.8669  18.8669  18.8699  18.8699

          k = 0.0455 0.0455 0.0455 (  3803 PWs)   bands (ev):

    -5.7051  -5.7051  -1.9271  -1.9271  -1.9271  -1.9271  -1.9271  -1.9271
    -1.2276  -1.2276  -1.2276  -1.2276  -1.2276  -1.2276   3.2682   3.2682
     3.2682   3.2682   3.2682   3.2682   3.4011   3.4011   3.4011   3.4011
     3.4011   3.4011   5.9306   5.9306   6.1740   6.1740   6.2041   6.2041
     6.9397   6.9397   6.9397   6.9397   6.9397   6.9397   7.1655   7.1655
     7.1655   7.1655   7.1655   7.1655   8.8318   8.8318   8.8612   8.8612
     8.8700   8.8700   9.7797   9.7797  13.8703  13.8703  13.8704  13.8704
    14.3171  14.3171  15.9464  15.9464  15.9464  15.9464  15.9464  15.9464
    16.0088  16.0088  16.0088  16.0088  16.0088  16.0088  17.1767  17.1767
    17.1767  17.1767  17.1767  17.1767  17.2096  17.2096  17.2096  17.2096
    17.2096  17.2096  17.3809  17.3809  17.6674  17.6674  17.6742  17.6742
    18.5367  18.5367  18.5367  18.5367  18.5367  18.5367  19.0940  19.0940

          k = 0.0536 0.0536 0.0000 (  3799 PWs)   bands (ev):

    -5.7072  -5.7072  -1.9896  -1.9896  -1.9896  -1.9896  -1.5992  -1.5992
    -1.5613  -1.5613  -1.1644  -1.1644  -1.1644  -1.1644   3.2166   3.2166
     3.3482   3.3482   3.3482   3.3482   3.3563   3.3563   3.3563   3.3563
     3.3986   3.3986   5.9808   5.9808   6.1260   6.1260   6.2264   6.2264
     6.9352   6.9352   6.9353   6.9353   6.9660   6.9660   7.1226   7.1226
     7.1227   7.1227   7.1879   7.1879   8.8101   8.8101   8.8458   8.8458
     8.9024   8.9024   9.7601   9.7601  13.8219  13.8219  13.9321  13.9321
    14.3085  14.3085  15.8683  15.8683  15.8683  15.8683  16.0566  16.0566
    16.0566  16.0566  16.0688  16.0688  16.1832  16.1832  16.8786  16.8786
    16.9455  16.9455  17.2274  17.2274  17.2274  17.2274  17.4328  17.4328
    17.4328  17.4328  17.4508  17.4508  17.5350  17.5350  17.7171  17.7171
    18.3730  18.3730  18.3730  18.3730  19.0063  19.0063  19.0063  19.0063

          k = 0.0625 0.0000 0.0625 (  3795 PWs)   bands (ev):

    -5.6981  -5.6981  -2.0535  -2.0535  -2.0535  -2.0535  -1.6033  -1.6033
    -1.5515  -1.5515  -1.0924  -1.0924  -1.0924  -1.0924   3.1637   3.1637
     3.3372   3.3372   3.3372   3.3372   3.3495   3.3495   3.3495   3.3495
     3.4059   3.4059   5.9007   5.9007   6.0885   6.0885   6.2215   6.2215
     6.9511   6.9511   6.9511   6.9511   6.9743   6.9743   7.1682   7.1682
     7.1682   7.1682   7.2711   7.2711   8.8209   8.8209   8.8626   8.8626
     8.9294   8.9294   9.8265   9.8265  13.7756  13.7756  13.9217  13.9217
    14.3477  14.3477  15.7243  15.7243  15.7243  15.7243  15.9858  15.9858
    15.9858  15.9858  15.9870  15.9870  16.1344  16.1344  16.7760  16.7760
    16.8622  16.8622  17.2133  17.2133  17.2133  17.2133  17.4383  17.4383
    17.4996  17.4996  17.4996  17.4996  17.5510  17.5510  17.7942  17.7942
    18.3143  18.3143  18.3143  18.3143  18.9902  18.9902  18.9902  18.9902

          k = 0.0682 0.0682 0.0682 (  3803 PWs)   bands (ev):

    -5.6713  -5.6713  -2.0850  -2.0850  -2.0850  -2.0850  -2.0849  -2.0849
    -1.0436  -1.0436  -1.0436  -1.0436  -1.0436  -1.0436   3.1486   3.1486
     3.1486   3.1486   3.1486   3.1486   3.4293   3.4293   3.4294   3.4294
     3.4294   3.4294   5.6160   5.6160   6.1193   6.1193   6.1503   6.1503
     6.9737   6.9737   6.9737   6.9737   6.9737   6.9737   7.3897   7.3897
     7.3897   7.3897   7.3897   7.3897   8.8494   8.8494   8.9277   8.9277
     8.9490   8.9490  10.0339  10.0339  13.7706  13.7706  13.7707  13.7707
    14.4604  14.4604  15.5758  15.5758  15.5758  15.5758  15.5758  15.5758
    15.6674  15.6674  15.6674  15.6674  15.6675  15.6675  17.1333  17.1333
    17.1333  17.1333  17.1333  17.1333  17.1776  17.1776  17.1776  17.1776
    17.1776  17.1776  17.2615  17.2615  17.8776  17.8776  17.8843  17.8843
    18.5203  18.5203  18.5203  18.5203  18.5203  18.5203  19.0778  19.0778

          k = 0.0804 0.0804 0.0000 (  3799 PWs)   bands (ev):

    -5.6758  -5.6758  -2.1784  -2.1784  -2.1783  -2.1783  -1.6140  -1.6140
    -1.5274  -1.5274  -0.9481  -0.9481  -0.9481  -0.9481   3.0439   3.0439
     3.3102   3.3102   3.3102   3.3102   3.3351   3.3351   3.3351   3.3351
     3.4237   3.4237   5.7184   5.7184   5.9992   5.9992   6.2104   6.2104
     6.9949   6.9949   6.9969   6.9969   6.9969   6.9969   7.2714   7.2714
     7.2714   7.2714   7.4661   7.4661   8.8456   8.8456   8.9035   8.9035
     8.9808   8.9808   9.9883   9.9883  13.6698  13.6698  13.8977  13.8977
    14.4424  14.4424  15.4078  15.4078  15.4078  15.4078  15.8038  15.8038
    15.8366  15.8366  15.8366  15.8366  16.0205  16.0205  16.5533  16.5533
    16.6804  16.6804  17.1713  17.1713  17.1713  17.1713  17.4111  17.4111
    17.5908  17.5908  17.6408  17.6408  17.6408  17.6408  17.9759  17.9759
    18.1942  18.1942  18.1942  18.1942  18.9803  18.9803  18.9803  18.9803

          k = 0.0909 0.0909 0.0909 (  3812 PWs)   bands (ev):

    -5.6240  -5.6240  -2.2342  -2.2342  -2.2342  -2.2342  -2.2342  -2.2342
    -0.8615  -0.8615  -0.8615  -0.8615  -0.8614  -0.8614   3.0081   3.0081
     3.0081   3.0081   3.0081   3.0081   3.4687   3.4687   3.4687   3.4687
     3.4687   3.4687   5.2443   5.2443   6.0504   6.0504   6.0816   6.0816
     7.0239   7.0239   7.0239   7.0239   7.0239   7.0239   7.6772   7.6772
     7.6772   7.6772   7.6772   7.6772   8.8201   8.8201   9.0273   9.0273
     9.0503   9.0503  10.3631  10.3631  13.6544  13.6544  13.6546  13.6546
    14.6492  14.6492  15.1577  15.1577  15.1577  15.1577  15.1577  15.1577
    15.2602  15.2602  15.2602  15.2602  15.2602  15.2602  17.0820  17.0820
    17.0820  17.0820  17.0820  17.0820  17.1228  17.1228  17.1308  17.1308
    17.1308  17.1308  17.1308  17.1308  18.1505  18.1505  18.1571  18.1571
    18.5290  18.5290  18.5290  18.5290  18.5290  18.5290  19.0829  19.0829

          k = 0.0938 0.0000 0.0938 (  3803 PWs)   bands (ev):

    -5.6554  -5.6554  -2.2694  -2.2694  -2.2694  -2.2694  -1.6243  -1.6243
    -1.5053  -1.5053  -0.8399  -0.8399  -0.8399  -0.8399   2.9452   2.9452
     3.2858   3.2858   3.2858   3.2858   3.3245   3.3245   3.3245   3.3245
     3.4400   3.4400   5.5672   5.5672   5.9208   5.9208   6.2005   6.2005
     7.0137   7.0137   7.0432   7.0432   7.0432   7.0432   7.3589   7.3589
     7.3589   7.3589   7.6340   7.6340   8.8673   8.8673   8.9397   8.9397
     9.0156   9.0156  10.1312  10.1312  13.5819  13.5819  13.8778  13.8778
    14.5268  14.5268  15.1535  15.1535  15.1535  15.1535  15.6536  15.6536
    15.7203  15.7203  15.7203  15.7203  15.9229  15.9229  16.3762  16.3762
    16.5348  16.5348  17.1301  17.1301  17.1301  17.1301  17.3904  17.3904
    17.6277  17.6277  17.7408  17.7408  17.7408  17.7408  18.1104  18.1104
    18.1104  18.1104  18.1331  18.1331  18.9891  18.9891  18.9891  18.9891

          k = 0.1071 0.1071 0.0000 (  3799 PWs)   bands (ev):

    -5.6320  -5.6320  -2.3581  -2.3581  -2.3580  -2.3580  -1.6369  -1.6369
    -1.4799  -1.4799  -0.7322  -0.7322  -0.7322  -0.7322   2.8420   2.8420
     3.2582   3.2582   3.2582   3.2582   3.3148   3.3148   3.3149   3.3149
     3.4588   3.4588   5.4072   5.4072   5.8338   5.8338   6.1891   6.1891
     7.0353   7.0353   7.0992   7.0992   7.0992   7.0992   7.4546   7.4546
     7.4546   7.4546   7.8177   7.8177   8.8920   8.8920   8.9800   8.9800
     9.0469   9.0469  10.2880  10.2880  13.4895  13.4895  13.8576  13.8576
    14.6218  14.6218  14.8900  14.8900  14.8900  14.8900  15.4959  15.4959
    15.6014  15.6014  15.6014  15.6014  15.8169  15.8169  16.1940  16.1940
    16.3847  16.3847  17.0827  17.0827  17.0827  17.0827  17.3708  17.3708
    17.6708  17.6708  17.7988  17.7988  17.7988  17.7988  18.0666  18.0666
    18.0666  18.0666  18.3057  18.3057  19.0084  19.0084  19.0084  19.0084

          k = 0.1136 0.1136 0.1136 (  3803 PWs)   bands (ev):

    -5.5634  -5.5634  -2.3744  -2.3744  -2.3744  -2.3744  -2.3744  -2.3744
    -0.6856  -0.6856  -0.6856  -0.6856  -0.6856  -0.6856   2.8637   2.8637
     2.8637   2.8637   2.8637   2.8637   3.5189   3.5189   3.5189   3.5189
     3.5189   3.5189   4.8408   4.8408   5.9711   5.9711   6.0024   6.0024
     7.0891   7.0891   7.0892   7.0892   7.0892   7.0892   8.0156   8.0156
     8.0156   8.0156   8.0156   8.0156   8.7632   8.7632   9.1431   9.1431
     9.1666   9.1666  10.7363  10.7363  13.5367  13.5367  13.5370  13.5370
    14.7188  14.7188  14.7188  14.7188  14.7188  14.7188  14.8149  14.8149
    14.8149  14.8149  14.8149  14.8149  14.8688  14.8688  16.9885  16.9885
    17.0235  17.0235  17.0235  17.0235  17.0236  17.0236  17.0757  17.0757
    17.0757  17.0757  17.0757  17.0757  18.4733  18.4733  18.4798  18.4798
    18.5449  18.5449  18.5449  18.5449  18.5449  18.5449  19.0972  19.0972

          k = 0.1250 0.0000 0.1250 (  3803 PWs)   bands (ev):

    -5.5959  -5.5959  -2.4725  -2.4725  -2.4725  -2.4725  -1.6579  -1.6579
    -1.4407  -1.4407  -0.5900  -0.5900  -0.5899  -0.5899   2.7016   2.7016
     3.2172   3.2172   3.2172   3.2172   3.3049   3.3049   3.3049   3.3049
     3.4876   3.4876   5.1842   5.1842   5.7061   5.7061   6.1712   6.1712
     7.0686   7.0686   7.1884   7.1884   7.1884   7.1884   7.5941   7.5941
     7.5942   7.5942   8.0836   8.0836   8.9297   8.9297   9.0392   9.0392
     9.0846   9.0846  10.5116  10.5116  13.3623  13.3623  13.8327  13.8327
    14.5295  14.5295  14.5295  14.5295  14.7631  14.7631  15.2776  15.2776
    15.4396  15.4396  15.4396  15.4396  15.6650  15.6650  15.9468  15.9468
    16.1799  16.1799  17.0123  17.0123  17.0123  17.0123  17.3480  17.3480
    17.7327  17.7327  17.7327  17.7327  17.7383  17.7383  18.1474  18.1474
    18.1475  18.1475  18.5565  18.5565  19.0458  19.0458  19.0458  19.0458

          k = 0.1339 0.1339 0.0000 (  3799 PWs)   bands (ev):

    -5.5757  -5.5757  -2.5280  -2.5280  -2.5280  -2.5280  -1.6704  -1.6704
    -1.4188  -1.4188  -0.5198  -0.5198  -0.5197  -0.5197   2.6316   2.6316
     3.1951   3.1951   3.1951   3.1951   3.3016   3.3016   3.3016   3.3016
     3.5036   3.5036   5.0699   5.0699   5.6380   5.6380   6.1610   6.1610
     7.0871   7.0871   7.2388   7.2388   7.2388   7.2388   7.6687   7.6687
     7.6687   7.6687   8.2243   8.2243   8.9505   8.9505   9.0707   9.0707
     9.1023   9.1023  10.6269  10.6269  13.2980  13.2980  13.8223  13.8223
    14.3469  14.3469  14.3469  14.3469  14.8393  14.8393  15.1661  15.1661
    15.3576  15.3576  15.3576  15.3576  15.5854  15.5854  15.8223  15.8223
    16.0764  16.0764  16.9749  16.9749  16.9749  16.9749  17.3388  17.3388
    17.6644  17.6644  17.6645  17.6645  17.7767  17.7767  18.2206  18.2206
    18.2206  18.2206  18.6896  18.6896  19.0684  19.0684  19.0684  19.0684

          k = 0.1364 0.1364 0.1364 (  3797 PWs)   bands (ev):

    -5.4896  -5.4896  -2.5052  -2.5052  -2.5052  -2.5052  -2.5052  -2.5052
    -0.5222  -0.5222  -0.5222  -0.5222  -0.5222  -0.5222   2.7313   2.7313
     2.7313   2.7313   2.7313   2.7313   3.5797   3.5797   3.5798   3.5798
     3.5798   3.5798   4.4204   4.4204   5.8855   5.8855   5.9167   5.9167
     7.1686   7.1686   7.1686   7.1686   7.1686   7.1686   8.3948   8.3948
     8.3948   8.3948   8.3948   8.3948   8.6895   8.6895   9.2662   9.2662
     9.2899   9.2899  11.1325  11.1325  13.4308  13.4308  13.4311  13.4311
    14.2732  14.2732  14.2732  14.2732  14.2732  14.2732  14.3487  14.3487
    14.3487  14.3487  14.3487  14.3487  15.0937  15.0937  16.8903  16.8903
    16.9573  16.9573  16.9573  16.9573  16.9573  16.9573  17.0174  17.0174
    17.0174  17.0174  17.0174  17.0174  18.5568  18.5568  18.5568  18.5568
    18.5568  18.5568  18.8350  18.8350  18.8414  18.8414  19.1126  19.1126

          k = 0.1563 0.0000 0.1563 (  3789 PWs)   bands (ev):

    -5.5195  -5.5195  -2.6617  -2.6617  -2.6617  -2.6617  -1.7083  -1.7083
    -1.3576  -1.3576  -0.3480  -0.3480  -0.3480  -0.3480   2.4611   2.4611
     3.1362   3.1362   3.1362   3.1362   3.3005   3.3005   3.3005   3.3005
     3.5484   3.5484   4.7786   4.7786   5.4572   5.4572   6.1318   6.1318
     7.1387   7.1387   7.3807   7.3807   7.3807   7.3807   7.8683   7.8683
     7.8683   7.8683   8.5952   8.5952   9.0089   9.0089   9.1391   9.1391
     9.1593   9.1593  10.9161  10.9161  13.1392  13.1392  13.8088  13.8088
    13.8870  13.8870  13.8870  13.8870  14.8834  14.8834  15.0436  15.0436
    15.1495  15.1495  15.1495  15.1495  15.3784  15.3784  15.5111  15.5111
    15.8165  15.8165  16.8769  16.8769  16.8769  16.8769  17.3239  17.3239
    17.4634  17.4634  17.4634  17.4634  17.8865  17.8865  18.4241  18.4241
    18.4241  18.4241  19.0413  19.0413  19.1337  19.1337  19.1337  19.1337

          k = 0.1591 0.1591 0.1591 (  3779 PWs)   bands (ev):

    -5.4029  -5.4029  -2.6264  -2.6264  -2.6264  -2.6264  -2.6264  -2.6264
    -0.3789  -0.3789  -0.3789  -0.3789  -0.3789  -0.3789   2.6257   2.6257
     2.6257   2.6257   2.6257   2.6257   3.6508   3.6508   3.6509   3.6509
     3.6509   3.6509   3.9925   3.9925   5.7968   5.7968   5.8280   5.8280
     7.2617   7.2617   7.2617   7.2617   7.2617   7.2617   8.6062   8.6062
     8.8072   8.8072   8.8072   8.8072   8.8072   8.8072   9.3884   9.3884
     9.4121   9.4121  11.5392  11.5392  13.3485  13.3485  13.3491  13.3491
    13.8291  13.8291  13.8291  13.8291  13.8291  13.8291  13.8718  13.8718
    13.8718  13.8718  13.8718  13.8718  15.2811  15.2811  16.8745  16.8745
    16.8825  16.8825  16.8825  16.8825  16.8825  16.8825  16.9597  16.9597
    16.9597  16.9597  16.9597  16.9597  18.5579  18.5579  18.5579  18.5579
    18.5579  18.5579  19.1233  19.1233  19.1233  19.1233  19.1233  19.1233

          k = 0.1607 0.1607 0.0000 (  3789 PWs)   bands (ev):

    -5.5072  -5.5072  -2.6876  -2.6876  -2.6876  -2.6876  -1.7172  -1.7172
    -1.3442  -1.3442  -0.3145  -0.3145  -0.3145  -0.3145   2.4282   2.4282
     3.1240   3.1240   3.1240   3.1240   3.3017   3.3017   3.3017   3.3017
     3.5581   3.5581   4.7198   4.7198   5.4195   5.4195   6.1253   6.1253
     7.1500   7.1500   7.4117   7.4117   7.4117   7.4117   7.9104   7.9104
     7.9104   7.9104   8.6724   8.6724   9.0216   9.0216   9.1474   9.1474
     9.1765   9.1765  10.9728  10.9728  13.1081  13.1081  13.7948  13.7948
    13.7948  13.7948  13.8090  13.8090  14.8265  14.8265  15.0864  15.0864
    15.1074  15.1074  15.1074  15.1074  15.3358  15.3358  15.4491  15.4491
    15.7645  15.7645  16.8568  16.8568  16.8568  16.8568  17.3225  17.3225
    17.4202  17.4202  17.4202  17.4202  17.9110  17.9110  18.4656  18.4656
    18.4656  18.4656  19.1145  19.1145  19.1481  19.1481  19.1482  19.1482

          k = 0.1818 0.1818 0.1818 (  3779 PWs)   bands (ev):

    -5.3034  -5.3034  -2.7379  -2.7379  -2.7379  -2.7379  -2.7379  -2.7379
    -0.2645  -0.2645  -0.2645  -0.2645  -0.2645  -0.2645   2.5606   2.5606
     2.5606   2.5606   2.5606   2.5606   3.5631   3.5631   3.7317   3.7317
     3.7317   3.7317   3.7317   3.7317   5.7078   5.7078   5.7390   5.7390
     7.3678   7.3678   7.3678   7.3678   7.3678   7.3678   8.5180   8.5180
     9.2468   9.2468   9.2468   9.2468   9.2468   9.2468   9.5017   9.5017
     9.5252   9.5252  11.9490  11.9490  13.3004  13.3004  13.3013  13.3013
    13.3870  13.3870  13.3870  13.3870  13.3870  13.3870  13.3957  13.3957
    13.3958  13.3958  13.3958  13.3958  15.3815  15.3815  16.7973  16.7973
    16.7973  16.7973  16.7973  16.7973  16.9053  16.9053  16.9053  16.9053
    16.9053  16.9053  16.9923  16.9923  18.5431  18.5431  18.5431  18.5431
    18.5431  18.5431  19.1239  19.1239  19.1239  19.1239  19.1239  19.1239

          k = 0.1875 0.0000 0.1875 (  3782 PWs)   bands (ev):

    -5.4266  -5.4266  -2.8364  -2.8364  -2.8364  -2.8364  -1.7800  -1.7800
    -1.2562  -1.2562  -0.1206  -0.1206  -0.1205  -0.1205   2.2437   2.2437
     3.0481   3.0481   3.0481   3.0481   3.3213   3.3213   3.3213   3.3213
     3.6220   3.6220   4.3652   4.3652   5.1848   5.1848   6.0810   6.0810
     7.2238   7.2238   7.6138   7.6138   7.6138   7.6138   8.1767   8.1767
     8.1767   8.1767   9.1051   9.1051   9.1528   9.1528   9.1913   9.1913
     9.2894   9.2894  11.2932  11.2932  12.9289  12.9289  13.2425  13.2425
    13.2426  13.2426  13.8429  13.8429  14.4840  14.4840  14.8504  14.8504
    14.8504  14.8504  15.0678  15.0678  15.0877  15.0877  15.3536  15.3536
    15.4544  15.4544  16.7345  16.7345  16.7345  16.7345  17.1454  17.1454
    17.1454  17.1454  17.3263  17.3263  18.0768  18.0768  18.7081  18.7081
    18.7081  18.7081  19.2460  19.2460  19.2460  19.2460  19.5705  19.5705

          k = 0.1875 0.1875 0.0000 (  3782 PWs)   bands (ev):

    -5.4266  -5.4266  -2.8364  -2.8364  -2.8364  -2.8364  -1.7800  -1.7800
    -1.2562  -1.2562  -0.1206  -0.1206  -0.1205  -0.1205   2.2437   2.2437
     3.0481   3.0481   3.0481   3.0481   3.3213   3.3213   3.3213   3.3213
     3.6220   3.6220   4.3652   4.3652   5.1848   5.1848   6.0810   6.0810
     7.2238   7.2238   7.6138   7.6138   7.6138   7.6138   8.1767   8.1767
     8.1767   8.1767   9.1051   9.1051   9.1528   9.1528   9.1913   9.1913
     9.2894   9.2894  11.2932  11.2932  12.9289  12.9289  13.2425  13.2425
    13.2426  13.2426  13.8429  13.8429  14.4840  14.4840  14.8504  14.8504
    14.8504  14.8504  15.0678  15.0678  15.0877  15.0877  15.3536  15.3536
    15.4544  15.4544  16.7345  16.7345  16.7345  16.7345  17.1454  17.1454
    17.1454  17.1454  17.3263  17.3263  18.0768  18.0768  18.7081  18.7081
    18.7081  18.7081  19.2460  19.2460  19.2460  19.2460  19.5705  19.5705

          k = 0.2045 0.2045 0.2045 (  3785 PWs)   bands (ev):

    -5.1916  -5.1916  -2.8398  -2.8398  -2.8398  -2.8398  -2.8397  -2.8397
    -0.1870  -0.1870  -0.1870  -0.1870  -0.1870  -0.1870   2.5473   2.5473
     2.5473   2.5473   2.5474   2.5474   3.1362   3.1362   3.8217   3.8217
     3.8218   3.8218   3.8218   3.8218   5.6205   5.6205   5.6517   5.6517
     7.4857   7.4857   7.4858   7.4858   7.4858   7.4858   8.4285   8.4285
     9.5987   9.5987   9.6218   9.6218   9.7091   9.7091   9.7091   9.7091
     9.7091   9.7091  12.3564  12.3564  12.9104  12.9104  12.9104  12.9104
    12.9104  12.9104  12.9654  12.9654  12.9654  12.9654  12.9654  12.9654
    13.2951  13.2951  13.2965  13.2965  15.3824  15.3824  16.6987  16.6987
    16.6987  16.6987  16.6987  16.6987  16.8560  16.8560  16.8560  16.8560
    16.8560  16.8560  17.2566  17.2566  18.5107  18.5107  18.5107  18.5107
    18.5107  18.5107  19.1088  19.1088  19.1088  19.1088  19.1088  19.1088

          k = 0.2143 0.2143 0.0000 (  3776 PWs)   bands (ev):

    -5.3339  -5.3339  -2.9741  -2.9741  -2.9740  -2.9740  -1.8616  -1.8616
    -1.1547  -1.1547   0.0577   0.0577   0.0577   0.0577   2.0864   2.0864
     2.9705   2.9705   2.9705   2.9705   3.3659   3.3659   3.3659   3.3659
     3.6949   3.6949   4.0112   4.0112   4.9393   4.9393   6.0275   6.0275
     7.3082   7.3082   7.8416   7.8416   7.8416   7.8416   8.4651   8.4651
     8.4652   8.4652   9.1996   9.1996   9.2313   9.2313   9.4129   9.4129
     9.6585   9.6585  11.5550  11.5550  12.6964  12.6964  12.6965  12.6965
    12.7671  12.7671  13.9558  13.9558  14.1432  14.1432  14.5862  14.5862
    14.5862  14.5862  14.7151  14.7151  14.8131  14.8131  15.1495  15.1495
    15.6308  15.6308  16.6122  16.6122  16.6122  16.6122  16.8469  16.8469
    16.8469  16.8469  17.3525  17.3525  18.2775  18.2775  18.9169  18.9169
    18.9169  18.9169  19.3682  19.3682  19.3682  19.3682  20.0500  20.0500

          k = 0.2188 0.0000 0.2188 (  3780 PWs)   bands (ev):

    -5.3173  -5.3173  -2.9959  -2.9959  -2.9959  -2.9959  -1.8771  -1.8771
    -1.1364  -1.1364   0.0856   0.0856   0.0856   0.0856   2.0633   2.0633
     2.9576   2.9576   2.9576   2.9576   3.3761   3.3761   3.3761   3.3761
     3.7079   3.7079   3.9526   3.9526   4.8977   4.8977   6.0176   6.0176
     7.3232   7.3232   7.8818   7.8818   7.8818   7.8818   8.5152   8.5152
     8.5152   8.5152   9.2151   9.2151   9.2388   9.2388   9.4345   9.4345
     9.7449   9.7449  11.5910  11.5910  12.6063  12.6063  12.6063  12.6063
    12.7422  12.7422  13.9843  13.9843  14.0867  14.0867  14.5412  14.5412
    14.5412  14.5412  14.6557  14.6557  14.7686  14.7686  15.0994  15.0994
    15.6773  15.6773  16.5920  16.5920  16.5920  16.5920  16.7947  16.7947
    16.7947  16.7947  17.3591  17.3591  18.3146  18.3146  18.9465  18.9465
    18.9465  18.9465  19.3912  19.3912  19.3912  19.3912  20.1316  20.1316

          k = 0.2273 0.2273 0.2273 (  3779 PWs)   bands (ev):

    -5.0678  -5.0678  -2.9320  -2.9320  -2.9320  -2.9320  -2.9319  -2.9319
    -0.1506  -0.1506  -0.1506  -0.1506  -0.1506  -0.1506   2.5926   2.5926
     2.5926   2.5926   2.5926   2.5926   2.7152   2.7152   3.9202   3.9202
     3.9202   3.9202   3.9202   3.9202   5.5365   5.5365   5.5677   5.5677
     7.6145   7.6145   7.6145   7.6145   7.6145   7.6145   8.3402   8.3402
     9.6741   9.6741   9.6964   9.6964  10.1901  10.1901  10.1901  10.1901
    10.1901  10.1901  12.4362  12.4362  12.4362  12.4362  12.4363  12.4363
    12.5510  12.5510  12.5510  12.5510  12.5510  12.5510  12.7568  12.7568
    13.3394  13.3394  13.3415  13.3415  15.3191  15.3191  16.5820  16.5820
    16.5820  16.5820  16.5820  16.5820  16.8132  16.8132  16.8132  16.8132
    16.8132  16.8132  17.6323  17.6323  18.4611  18.4611  18.4611  18.4611
    18.4611  18.4611  19.0657  19.0657  19.0657  19.0657  19.0657  19.0657

          k = 0.2411 0.2411 0.0000 (  3782 PWs)   bands (ev):

    -5.2294  -5.2294  -3.1002  -3.1002  -3.1002  -3.1002  -1.9636  -1.9636
    -1.0397  -1.0397   0.2163   0.2163   0.2163   0.2163   1.9623   1.9623
     2.8936   2.8936   2.8936   2.8936   3.4401   3.4401   3.4401   3.4401
     3.6612   3.6612   3.7766   3.7766   4.6876   4.6876   5.9641   5.9641
     7.4028   7.4028   8.0917   8.0917   8.0917   8.0917   8.7736   8.7736
     8.7736   8.7736   9.2572   9.2572   9.3140   9.3140   9.5462   9.5462
    10.1844  10.1844  11.7349  11.7349  12.1607  12.1607  12.1607  12.1607
    12.6272  12.6272  13.8067  13.8067  14.1732  14.1732  14.3134  14.3134
    14.3134  14.3134  14.3634  14.3634  14.5464  14.5464  14.8524  14.8524
    15.9078  15.9078  16.4927  16.4927  16.4927  16.4927  16.5250  16.5250
    16.5250  16.5250  17.4020  17.4020  18.5162  18.5162  19.0691  19.0691
    19.0691  19.0691  19.5102  19.5102  19.5102  19.5102  20.4710  20.4710

          k = 0.2500 0.0000 0.2500 (  3784 PWs)   bands (ev):

    -5.1920  -5.1920  -3.1396  -3.1396  -3.1396  -3.1396  -2.0024  -2.0024
    -0.9985  -0.9985   0.2642   0.2642   0.2642   0.2642   1.9290   1.9290
     2.8686   2.8686   2.8686   2.8686   3.4719   3.4719   3.4720   3.4720
     3.5458   3.5458   3.8058   3.8058   4.6029   4.6029   5.9407   5.9407
     7.4365   7.4365   8.1795   8.1795   8.1795   8.1795   8.8805   8.8805
     8.8805   8.8805   9.2661   9.2661   9.3527   9.3527   9.5929   9.5929
    10.3632  10.3632  11.7760  11.7760  11.9851  11.9851  11.9851  11.9851
    12.5860  12.5860  13.6959  13.6959  14.2204  14.2204  14.2204  14.2204
    14.2489  14.2489  14.2701  14.2701  14.4579  14.4579  14.7554  14.7554
    15.9983  15.9983  16.4113  16.4113  16.4113  16.4113  16.4551  16.4551
    16.4551  16.4551  17.4236  17.4236  18.6046  18.6046  19.1071  19.1071
    19.1071  19.1071  19.5534  19.5534  19.5534  19.5534  20.4616  20.4616

          k = 0.2500 0.2500 0.2500 (  3785 PWs)   bands (ev):

    -4.9327  -4.9327  -3.0148  -3.0148  -3.0148  -3.0148  -3.0147  -3.0147
    -0.1541  -0.1541  -0.1541  -0.1541  -0.1541  -0.1541   2.3024   2.3024
     2.6964   2.6964   2.6964   2.6964   2.6964   2.6964   4.0261   4.0261
     4.0261   4.0261   4.0261   4.0261   5.4570   5.4570   5.4883   5.4883
     7.7522   7.7522   7.7522   7.7522   7.7522   7.7522   8.2550   8.2550
     9.7247   9.7247   9.7462   9.7462  10.6836  10.6836  10.6836  10.6836
    10.6836  10.6836  11.9738  11.9738  11.9738  11.9738  11.9739  11.9739
    12.1519  12.1519  12.1519  12.1519  12.1519  12.1519  13.1433  13.1433
    13.4367  13.4367  13.4396  13.4396  15.2343  15.2343  16.4409  16.4409
    16.4409  16.4409  16.4409  16.4409  16.7776  16.7776  16.7777  16.7777
    16.7777  16.7777  18.0779  18.0779  18.3955  18.3955  18.3955  18.3955
    18.3955  18.3955  18.9412  18.9412  18.9412  18.9412  18.9412  18.9412

          k = 0.2679 0.2679 0.0000 (  3766 PWs)   bands (ev):

    -5.1134  -5.1134  -3.2146  -3.2146  -3.2145  -3.2145  -2.0868  -2.0868
    -0.9115  -0.9115   0.3521   0.3521   0.3521   0.3521   1.8748   1.8748
     2.8197   2.8197   2.8197   2.8197   3.3174   3.3174   3.5466   3.5466
     3.5466   3.5466   3.8668   3.8668   4.4332   4.4332   5.8905   5.8905
     7.5071   7.5071   8.3611   8.3611   8.3611   8.3611   9.1000   9.1000
     9.1000   9.1000   9.2795   9.2795   9.4350   9.4350   9.6894   9.6894
    10.7251  10.7251  11.6394  11.6394  11.6394  11.6394  11.8338  11.8338
    12.5124  12.5124  13.4767  13.4767  14.0247  14.0247  14.0312  14.0312
    14.0312  14.0312  14.2819  14.2819  14.4986  14.4986  14.5652  14.5652
    16.1745  16.1745  16.1781  16.1781  16.1781  16.1781  16.3801  16.3801
    16.3801  16.3801  17.4745  17.4745  18.7948  18.7948  19.1681  19.1681
    19.1681  19.1681  19.6135  19.6135  19.6135  19.6135  20.4250  20.4250

          k = 0.2727 0.2727 0.2727 (  3779 PWs)   bands (ev):

    -4.7870  -4.7870  -3.0883  -3.0883  -3.0883  -3.0883  -3.0883  -3.0883
    -0.1905  -0.1905  -0.1905  -0.1905  -0.1905  -0.1905   1.9001   1.9001
     2.8527   2.8527   2.8527   2.8527   2.8528   2.8528   4.1382   4.1382
     4.1383   4.1383   4.1383   4.1383   5.3829   5.3829   5.4142   5.4142
     7.8963   7.8963   7.8963   7.8963   7.8963   7.8963   8.1745   8.1745
     9.7510   9.7510   9.7714   9.7714  11.1492  11.1492  11.1492  11.1492
    11.1492  11.1492  11.5644  11.5644  11.5644  11.5644  11.5644  11.5644
    11.7702  11.7702  11.7703  11.7703  11.7703  11.7703  13.5034  13.5034
    13.5875  13.5875  13.5912  13.5912  15.1635  15.1635  16.2692  16.2692
    16.2692  16.2692  16.2692  16.2692  16.7501  16.7501  16.7502  16.7502
    16.7502  16.7502  18.3166  18.3166  18.3166  18.3166  18.3166  18.3166
    18.5635  18.5635  18.6692  18.6692  18.6692  18.6692  18.6692  18.6692

          k = 0.2946 0.2946 0.0000 (  3764 PWs)   bands (ev):

    -4.9861  -4.9861  -3.3169  -3.3169  -3.3169  -3.3169  -2.2303  -2.2303
    -0.7699  -0.7699   0.4639   0.4639   0.4640   0.4640   1.8251   1.8251
     2.7504   2.7504   2.7504   2.7504   2.9814   2.9814   3.6855   3.6855
     3.6855   3.6855   3.9648   3.9648   4.1793   4.1793   5.8066   5.8066
     7.6206   7.6206   8.6473   8.6473   8.6473   8.6473   9.2874   9.2874
     9.4423   9.4423   9.4423   9.4423   9.5696   9.5696   9.8426   9.8426
    11.1369  11.1369  11.1369  11.1369  11.2736  11.2736  11.8758  11.8758
    12.4250  12.4250  13.1544  13.1544  13.7040  13.7040  13.7389  13.7389
    13.7389  13.7389  14.0217  14.0217  14.2891  14.2891  14.9136  14.9136
    15.8085  15.8085  15.8085  15.8085  16.2749  16.2749  16.2749  16.2749
    16.4213  16.4213  17.5694  17.5694  19.1114  19.1114  19.2313  19.2313
    19.2313  19.2313  19.6020  19.6020  19.6020  19.6020  20.3351  20.3351

          k = 0.2955 0.2955 0.2955 (  3767 PWs)   bands (ev):

    -4.6317  -4.6317  -3.1530  -3.1530  -3.1530  -3.1530  -3.1530  -3.1530
    -0.2504  -0.2504  -0.2503  -0.2503  -0.2503  -0.2503   1.5103   1.5103
     3.0522   3.0522   3.0522   3.0522   3.0523   3.0523   4.2552   4.2552
     4.2552   4.2552   4.2552   4.2552   5.3148   5.3148   5.3462   5.3462
     8.0428   8.0428   8.0428   8.0428   8.0428   8.0428   8.0996   8.0996
     9.7557   9.7557   9.7751   9.7751  11.0158  11.0158  11.0158  11.0158
    11.0159  11.0159  11.4079  11.4079  11.4079  11.4079  11.4079  11.4079
    11.7808  11.7808  11.7808  11.7808  11.7808  11.7808  13.7883  13.7883
    13.7935  13.7935  13.8115  13.8115  15.1447  15.1447  16.0635  16.0635
    16.0635  16.0635  16.0635  16.0635  16.7307  16.7307  16.7307  16.7307
    16.7307  16.7307  18.2276  18.2276  18.2276  18.2276  18.2276  18.2276
    18.3808  18.3808  18.3808  18.3808  18.3808  18.3808  19.0373  19.0373

          k = 0.3182 0.3182 0.3182 (  3764 PWs)   bands (ev):

    -4.4683  -4.4683  -3.2091  -3.2091  -3.2091  -3.2091  -3.2091  -3.2091
    -0.3240  -0.3240  -0.3240  -0.3240  -0.3240  -0.3240   1.1354   1.1354
     3.2849   3.2849   3.2849   3.2849   3.2849   3.2849   4.3749   4.3749
     4.3749   4.3749   4.3749   4.3749   5.2532   5.2532   5.2846   5.2846
     8.0311   8.0311   8.1854   8.1854   8.1854   8.1854   8.1854   8.1854
     9.7437   9.7437   9.7620   9.7620  10.6097  10.6097  10.6097  10.6097
    10.6098  10.6098  11.0678  11.0678  11.0678  11.0678  11.0678  11.0678
    12.2989  12.2989  12.2989  12.2989  12.2989  12.2989  14.0237  14.0237
    14.0367  14.0367  14.0417  14.0417  15.2270  15.2270  15.8276  15.8276
    15.8276  15.8276  15.8276  15.8276  16.7194  16.7194  16.7194  16.7194
    16.7194  16.7194  18.1288  18.1288  18.1288  18.1288  18.1288  18.1288
    18.1462  18.1462  18.1462  18.1462  18.1462  18.1462  18.9639  18.9639

          k = 0.3214 0.3214 0.0000 (  3772 PWs)   bands (ev):

    -4.8478  -4.8478  -3.4071  -3.4071  -3.4071  -3.4071  -2.3918  -2.3918
    -0.6151  -0.6151   0.5523   0.5523   0.5523   0.5523   1.8123   1.8124
     2.6543   2.6543   2.6872   2.6872   2.6872   2.6872   3.8538   3.8538
     3.8538   3.8538   3.9285   3.9285   4.0702   4.0702   5.7127   5.7127
     7.7426   7.7426   8.9479   8.9479   8.9479   8.9479   9.2775   9.2775
     9.7169   9.7169   9.7958   9.7958   9.7958   9.7958  10.0061  10.0061
    10.6607  10.6607  10.6608  10.6608  11.8142  11.8142  11.8905  11.8905
    12.3662  12.3662  12.8410  12.8410  13.4147  13.4147  13.4361  13.4361
    13.4361  13.4361  13.7678  13.7678  14.0258  14.0258  15.3938  15.3938
    15.4174  15.4174  15.4174  15.4174  16.1792  16.1792  16.1792  16.1792
    16.6384  16.6384  17.6857  17.6857  19.2645  19.2645  19.2645  19.2645
    19.4581  19.4581  19.5006  19.5006  19.5006  19.5006  20.2204  20.2205

          k = 0.3409 0.3409 0.3409 (  3758 PWs)   bands (ev):

    -4.2987  -4.2987  -3.2571  -3.2571  -3.2571  -3.2571  -3.2571  -3.2571
    -0.4033  -0.4033  -0.4033  -0.4033  -0.4033  -0.4033   0.7779   0.7779
     3.5411   3.5411   3.5411   3.5411   3.5412   3.5412   4.4950   4.4950
     4.4950   4.4950   4.4950   4.4950   5.1983   5.1983   5.2298   5.2298
     7.9697   7.9697   8.3126   8.3126   8.3126   8.3126   8.3126   8.3126
     9.7202   9.7202   9.7376   9.7376  10.2221  10.2221  10.2221  10.2221
    10.2222  10.2222  10.7524  10.7524  10.7524  10.7524  10.7524  10.7524
    12.8324  12.8324  12.8324  12.8324  12.8324  12.8324  14.1201  14.1201
    14.3239  14.3239  14.3303  14.3303  15.4378  15.4378  15.5759  15.5759
    15.5759  15.5759  15.5759  15.5759  16.7160  16.7160  16.7160  16.7160
    16.7160  16.7160  17.9608  17.9608  17.9608  17.9608  17.9608  17.9608
    18.0348  18.0348  18.0348  18.0348  18.0348  18.0348  18.8878  18.8878

          k = 0.3482 0.3482 0.0000 (  3766 PWs)   bands (ev):

    -4.6991  -4.6991  -3.4850  -3.4850  -3.4850  -3.4850  -2.5685  -2.5685
    -0.4471  -0.4471   0.6194   0.6194   0.6194   0.6194   1.8345   1.8345
     2.3369   2.3369   2.6310   2.6310   2.6310   2.6310   3.6829   3.6829
     4.0451   4.0451   4.0452   4.0452   4.1824   4.1824   5.6094   5.6094
     7.8722   7.8722   9.2466   9.2466   9.2608   9.2608   9.2608   9.2608
     9.8769   9.8769  10.0814  10.0814  10.0814  10.0814  10.1802  10.1802
    10.2945  10.2945  10.2945  10.2945  11.9023  11.9023  12.2839  12.2839
    12.3365  12.3365  12.5372  12.5372  13.1233  13.1233  13.1233  13.1233
    13.2181  13.2181  13.5224  13.5224  13.7766  13.7766  15.0086  15.0086
    15.0086  15.0086  15.9199  15.9199  16.0947  16.0947  16.0947  16.0947
    16.8138  16.8138  17.8227  17.8227  19.2412  19.2412  19.2412  19.2412
    19.4128  19.4128  19.4128  19.4128  19.8086  19.8086  20.0986  20.0986

          k = 0.3636 0.3636 0.3636 (  3761 PWs)   bands (ev):

    -4.1257  -4.1257  -3.2974  -3.2974  -3.2974  -3.2974  -3.2973  -3.2973
    -0.4818  -0.4818  -0.4818  -0.4818  -0.4818  -0.4818   0.4411   0.4411
     3.8123   3.8123   3.8123   3.8123   3.8123   3.8123   4.6127   4.6127
     4.6127   4.6127   4.6127   4.6127   5.1505   5.1505   5.1820   5.1820
     7.9158   7.9158   8.4032   8.4032   8.4032   8.4032   8.4032   8.4032
     9.6902   9.6902   9.7068   9.7068   9.8847   9.8847   9.8847   9.8847
     9.8848   9.8848  10.4650  10.4650  10.4650  10.4650  10.4650  10.4650
    13.3563  13.3563  13.3563  13.3563  13.3563  13.3563  14.1303  14.1303
    14.6467  14.6467  14.6537  14.6537  15.3357  15.3357  15.3358  15.3358
    15.3358  15.3358  15.7450  15.7450  16.7198  16.7198  16.7198  16.7198
    16.7198  16.7198  17.8293  17.8293  17.8293  17.8293  17.8293  17.8293
    17.9370  17.9370  17.9370  17.9370  17.9370  17.9370  18.8057  18.8057

          k = 0.3750 0.3750 0.0000 (  3780 PWs)   bands (ev):

    -4.5403  -4.5403  -3.5505  -3.5505  -3.5504  -3.5504  -2.7566  -2.7566
    -0.2661  -0.2661   0.6684   0.6684   0.6684   0.6684   1.8888   1.8888
     2.0300   2.0300   2.5828   2.5828   2.5828   2.5828   3.4446   3.4446
     4.2500   4.2500   4.2500   4.2500   4.3006   4.3006   5.4976   5.4976
     8.0083   8.0083   9.1926   9.1926   9.5835   9.5835   9.5835   9.5835
     9.7584   9.7584   9.7585   9.7585  10.0494  10.0494  10.3649  10.3649
    10.5847  10.5847  10.5848  10.5848  11.9272  11.9272  12.2430  12.2430
    12.3357  12.3357  12.4413  12.4413  12.8012  12.8012  12.8012  12.8012
    13.2843  13.2843  13.3562  13.3562  13.5429  13.5429  14.5857  14.5857
    14.5857  14.5857  16.0223  16.0223  16.0223  16.0223  16.4785  16.4785
    16.9284  16.9284  17.9798  17.9798  19.1444  19.1444  19.1444  19.1444
    19.3975  19.3975  19.3975  19.3975  19.9829  19.9829  19.9829  19.9829

          k = 0.3864 0.3864 0.3864 (  3773 PWs)   bands (ev):

    -3.9534  -3.9534  -3.3304  -3.3304  -3.3304  -3.3304  -3.3304  -3.3304
    -0.5548  -0.5548  -0.5548  -0.5548  -0.5548  -0.5548   0.1297   0.1297
     4.0894   4.0894   4.0894   4.0894   4.0894   4.0894   4.7242   4.7242
     4.7242   4.7242   4.7242   4.7242   5.1099   5.1099   5.1415   5.1415
     7.8698   7.8698   8.4199   8.4199   8.4199   8.4199   8.4199   8.4199
     9.6363   9.6363   9.6363   9.6363   9.6363   9.6363   9.6583   9.6583
     9.6742   9.6742  10.2094  10.2094  10.2095  10.2095  10.2095  10.2095
    13.8268  13.8268  13.8268  13.8268  13.8268  13.8268  14.1015  14.1015
    14.9996  14.9996  15.0070  15.0070  15.1637  15.1637  15.1637  15.1637
    15.1637  15.1637  16.1024  16.1024  16.7299  16.7299  16.7299  16.7299
    16.7299  16.7299  17.7360  17.7360  17.7360  17.7360  17.7360  17.7360
    17.8436  17.8436  17.8436  17.8436  17.8436  17.8436  18.7133  18.7133

          k = 0.4018 0.4018 0.0000 (  3786 PWs)   bands (ev):

    -4.3722  -4.3722  -3.6033  -3.6033  -3.6033  -3.6033  -2.9526  -2.9526
    -0.0721  -0.0721   0.7028   0.7028   0.7028   0.7028   1.7341   1.7341
     1.9720   1.9720   2.5432   2.5432   2.5432   2.5432   3.2152   3.2152
     4.4239   4.4239   4.4553   4.4553   4.4553   4.4553   5.3786   5.3786
     8.1495   8.1495   9.1154   9.1154   9.3901   9.3901   9.3901   9.3901
     9.9147   9.9147   9.9147   9.9147  10.2344  10.2344  10.5606  10.5606
    10.9769  10.9769  10.9769  10.9769  11.9598  11.9598  11.9746  11.9746
    12.2748  12.2748  12.3635  12.3635  12.4714  12.4714  12.4714  12.4714
    13.0626  13.0626  13.3255  13.3255  13.8282  13.8282  14.1538  14.1538
    14.1538  14.1538  15.9631  15.9631  15.9631  15.9631  16.9516  16.9516
    17.0603  17.0603  18.1577  18.1577  19.0399  19.0399  19.0399  19.0399
    19.4056  19.4056  19.4056  19.4056  19.8574  19.8574  19.8820  19.8820

          k = 0.4091 0.4091 0.4091 (  3761 PWs)   bands (ev):

    -3.7877  -3.7877  -3.3566  -3.3566  -3.3566  -3.3566  -3.3566  -3.3566
    -0.6186  -0.6186  -0.6186  -0.6186  -0.6186  -0.6186  -0.1502  -0.1502
     4.3618   4.3618   4.3618   4.3618   4.3618   4.3618   4.8254   4.8254
     4.8254   4.8254   4.8254   4.8254   5.0766   5.0766   5.1082   5.1082
     7.8318   7.8318   8.3288   8.3288   8.3288   8.3288   8.3289   8.3289
     9.5130   9.5130   9.5130   9.5130   9.5130   9.5130   9.6278   9.6278
     9.6431   9.6431   9.9903   9.9903   9.9903   9.9903   9.9903   9.9903
    14.0612  14.0612  14.1212  14.1212  14.1212  14.1212  14.1212  14.1212
    15.1953  15.1953  15.1953  15.1953  15.1953  15.1953  15.3777  15.3777
    15.3852  15.3852  16.4792  16.4792  16.7444  16.7444  16.7444  16.7444
    16.7444  16.7444  17.6713  17.6713  17.6713  17.6713  17.6713  17.6713
    17.7584  17.7584  17.7584  17.7584  17.7584  17.7584  18.5995  18.5995

          k = 0.4286 0.4286 0.0000 (  3774 PWs)   bands (ev):

    -4.1953  -4.1953  -3.6436  -3.6436  -3.6436  -3.6436  -3.1532  -3.1532
     0.1348   0.1348   0.7258   0.7258   0.7258   0.7258   1.4495   1.4495
     2.0811   2.0811   2.5127   2.5127   2.5127   2.5127   2.9965   2.9965
     4.5515   4.5515   4.6439   4.6439   4.6440   4.6440   5.2538   5.2538
     8.2943   8.2943   9.0172   9.0172   9.0775   9.0775   9.0775   9.0775
    10.2505  10.2505  10.2505  10.2505  10.4317  10.4317  10.7672  10.7672
    11.3833  11.3833  11.3833  11.3833  11.6876  11.6876  12.0330  12.0330
    12.0484  12.0484  12.1365  12.1365  12.1365  12.1365  12.4188  12.4188
    12.8524  12.8524  13.1261  13.1261  13.7174  13.7174  13.7174  13.7174
    14.3876  14.3876  15.9175  15.9175  15.9175  15.9175  16.8450  16.8450
    17.6544  17.6544  18.3602  18.3602  18.9554  18.9554  18.9554  18.9554
    19.4152  19.4152  19.4152  19.4152  19.5744  19.5744  19.7939  19.7939

          k = 0.4318 0.4318 0.4318 (  3777 PWs)   bands (ev):

    -3.6372  -3.6372  -3.3765  -3.3765  -3.3765  -3.3765  -3.3765  -3.3765
    -0.6707  -0.6707  -0.6707  -0.6707  -0.6707  -0.6707  -0.3898  -0.3898
     4.6152   4.6152   4.6152   4.6152   4.6153   4.6153   4.9117   4.9117
     4.9117   4.9117   4.9117   4.9117   5.0506   5.0506   5.0823   5.0823
     7.8022   7.8022   8.1532   8.1532   8.1532   8.1532   8.1532   8.1532
     9.4957   9.4957   9.4957   9.4957   9.4957   9.4957   9.6015   9.6015
     9.6165   9.6165   9.8124   9.8124   9.8124   9.8124   9.8124   9.8124
    14.0226  14.0226  14.1498  14.1498  14.1498  14.1498  14.1498  14.1498
    15.5294  15.5294  15.5294  15.5294  15.5294  15.5294  15.7753  15.7753
    15.7826  15.7826  16.7611  16.7611  16.7611  16.7611  16.7611  16.7611
    16.8542  16.8542  17.6274  17.6274  17.6275  17.6275  17.6275  17.6275
    17.6856  17.6856  17.6856  17.6856  17.6856  17.6856  18.4371  18.4371

          k = 0.4545 0.4545 0.4545 (  3780 PWs)   bands (ev):

    -3.5136  -3.5136  -3.3904  -3.3904  -3.3904  -3.3904  -3.3904  -3.3904
    -0.7091  -0.7091  -0.7091  -0.7091  -0.7091  -0.7091  -0.5772  -0.5772
     4.8292   4.8292   4.8292   4.8292   4.8292   4.8292   4.9786   4.9786
     4.9786   4.9786   4.9786   4.9786   5.0321   5.0321   5.0637   5.0637
     7.7809   7.7809   7.9621   7.9621   7.9621   7.9621   7.9621   7.9621
     9.5256   9.5256   9.5256   9.5256   9.5256   9.5256   9.5815   9.5815
     9.5961   9.5961   9.6808   9.6808   9.6808   9.6808   9.6808   9.6808
    13.9920  13.9920  14.0681  14.0681  14.0681  14.0681  14.0681  14.0681
    16.0134  16.0134  16.0134  16.0134  16.0134  16.0134  16.1834  16.1834
    16.1898  16.1898  16.7767  16.7767  16.7767  16.7767  16.7767  16.7767
    17.2026  17.2026  17.5979  17.5979  17.5979  17.5979  17.5979  17.5979
    17.6305  17.6305  17.6305  17.6305  17.6305  17.6305  18.1814  18.1814

          k = 0.4554 0.4554 0.0000 (  3768 PWs)   bands (ev):

    -4.0107  -4.0107  -3.6712  -3.6712  -3.6712  -3.6712  -3.3552  -3.3552
     0.3544   0.3544   0.7400   0.7400   0.7400   0.7400   1.1766   1.1766
     2.2132   2.2132   2.4917   2.4917   2.4917   2.4917   2.7901   2.7901
     4.6823   4.6823   4.7949   4.7949   4.7949   4.7949   5.1246   5.1246
     8.4405   8.4405   8.8425   8.8425   8.8426   8.8426   8.9012   8.9012
    10.5862  10.5862  10.5862  10.5862  10.6413  10.6413  10.9847  10.9847
    11.4267  11.4267  11.7807  11.7807  11.7924  11.7924  11.7924  11.7924
    11.8059  11.8059  11.8059  11.8059  12.1493  12.1493  12.5005  12.5005
    12.6577  12.6577  12.9459  12.9459  13.2822  13.2822  13.2822  13.2822
    14.9595  14.9595  15.8861  15.8861  15.8861  15.8861  16.5846  16.5846
    18.2323  18.2323  18.6110  18.6110  18.8965  18.8965  18.8965  18.8965
    19.3013  19.3013  19.4221  19.4221  19.4221  19.4221  19.6602  19.6602

          k = 0.4773 0.4773 0.4773 (  3822 PWs)   bands (ev):

    -3.4308  -3.4308  -3.3987  -3.3987  -3.3987  -3.3987  -3.3986  -3.3986
    -0.7326  -0.7326  -0.7326  -0.7326  -0.7326  -0.7326  -0.6984  -0.6984
     4.9738   4.9738   4.9738   4.9738   4.9738   4.9738   5.0209   5.0209
     5.0242   5.0242   5.0242   5.0242   5.0242   5.0242   5.0526   5.0526
     7.7681   7.7681   7.8177   7.8177   7.8177   7.8177   7.8177   7.8177
     9.5575   9.5575   9.5575   9.5575   9.5575   9.5575   9.5689   9.5689
     9.5834   9.5834   9.6005   9.6005   9.6005   9.6005   9.6005   9.6005
    13.9726  13.9726  13.9939  13.9939  13.9939  13.9939  13.9939  13.9939
    16.5067  16.5067  16.5067  16.5067  16.5067  16.5067  16.5730  16.5730
    16.5771  16.5771  16.7880  16.7880  16.7880  16.7880  16.7880  16.7880
    17.4758  17.4758  17.5762  17.5762  17.5762  17.5762  17.5762  17.5762
    17.5996  17.5996  17.5996  17.5996  17.5996  17.5996  17.8014  17.8014

          k = 0.4821 0.4821 0.0000 (  3760 PWs)   bands (ev):

    -3.8194  -3.8194  -3.6860  -3.6860  -3.6860  -3.6860  -3.5564  -3.5564
     0.5866   0.5866   0.7471   0.7471   0.7471   0.7471   0.9156   0.9156
     2.3660   2.3660   2.4803   2.4803   2.4803   2.4803   2.5977   2.5977
     4.8150   4.8150   4.8857   4.8857   4.8857   4.8857   4.9927   4.9927
     8.5856   8.5856   8.7069   8.7069   8.7069   8.7069   8.7719   8.7719
    10.8630  10.8630  10.9016  10.9016  10.9016  10.9016  11.1772  11.1772
    11.2127  11.2127  11.4861  11.4861  11.4861  11.4861  11.5319  11.5319
    12.2023  12.2023  12.2023  12.2023  12.2759  12.2759  12.4805  12.4805
    12.6072  12.6072  12.7861  12.7861  12.8651  12.8651  12.8651  12.8651
    15.5160  15.5160  15.8692  15.8692  15.8692  15.8692  16.1865  16.1865
    18.6646  18.6646  18.8649  18.8649  18.8649  18.8649  19.0356  19.0356
    19.0362  19.0362  19.4261  19.4261  19.4261  19.4261  19.6536  19.6536

          k = 0.5000 0.5000 0.5000 (  3840 PWs)   bands (ev):

    -3.4014  -3.4014  -3.4014  -3.4014  -3.4014  -3.4014  -3.4013  -3.4013
    -0.7406  -0.7406  -0.7406  -0.7406  -0.7406  -0.7406  -0.7406  -0.7406
     5.0172   5.0172   5.0172   5.0172   5.0172   5.0172   5.0172   5.0172
     5.0489   5.0489   5.0489   5.0489   5.0489   5.0489   5.0489   5.0489
     7.7639   7.7639   7.7639   7.7639   7.7639   7.7639   7.7639   7.7639
     9.5646   9.5646   9.5646   9.5646   9.5646   9.5646   9.5646   9.5646
     9.5790   9.5790   9.5790   9.5790   9.5791   9.5791   9.5791   9.5791
    13.9660  13.9660  13.9660  13.9660  13.9660  13.9660  13.9660  13.9660
    16.7921  16.7921  16.7921  16.7921  16.7921  16.7921  16.7921  16.7921
    16.7924  16.7924  16.7924  16.7924  16.7924  16.7924  16.7924  16.7924
    17.5567  17.5567  17.5567  17.5567  17.5567  17.5567  17.5567  17.5567
    17.5873  17.5873  17.5873  17.5873  17.5873  17.5873  17.5873  17.5873

          k = 0.5089 0.5089 0.0000 (  3742 PWs)   bands (ev):

    -3.7544  -3.7544  -3.6882  -3.6882  -3.6881  -3.6881  -3.6228  -3.6228
     0.6668   0.6668   0.7481   0.7481   0.7481   0.7481   0.8313   0.8313
     2.4210   2.4210   2.4786   2.4786   2.4786   2.4786   2.5370   2.5370
     4.8594   4.8594   4.8993   4.8993   4.8993   4.8993   4.9483   4.9483
     8.6333   8.6333   8.6869   8.6869   8.6869   8.6869   8.7265   8.7265
    10.9396  10.9396  10.9825  10.9825  10.9825  10.9825  11.0967  11.0967
    11.2909  11.2909  11.4053  11.4053  11.4053  11.4053  11.4506  11.4506
    12.3173  12.3173  12.3173  12.3173  12.3234  12.3234  12.4258  12.4258
    12.6481  12.6481  12.7376  12.7376  12.7483  12.7483  12.7484  12.7484
    15.6937  15.6937  15.8668  15.8668  15.8668  15.8668  16.0306  16.0306
    18.7658  18.7658  18.8604  18.8604  18.8604  18.8604  18.9482  18.9482
    19.2256  19.2256  19.4268  19.4268  19.4268  19.4268  19.6336  19.6336

          k = 0.5357 0.5357 0.0000 (  3770 PWs)   bands (ev):

    -3.9476  -3.9476  -3.6776  -3.6776  -3.6775  -3.6775  -3.4225  -3.4225
     0.4304   0.4304   0.7431   0.7431   0.7431   0.7431   1.0882   1.0882
     2.2620   2.2620   2.4868   2.4868   2.4868   2.4868   2.7244   2.7244
     4.7263   4.7263   4.8329   4.8329   4.8329   4.8329   5.0809   5.0809
     8.4891   8.4891   8.7853   8.7853   8.7853   8.7853   8.8594   8.8594
    10.6960  10.6960  10.6960  10.6960  10.7139  10.7139  11.0595  11.0595
    11.3422  11.3422  11.6914  11.6914  11.6914  11.6914  11.6971  11.6971
    11.9351  11.9351  11.9351  11.9351  12.1887  12.1887  12.5333  12.5333
    12.5965  12.5965  12.8903  12.8903  13.1392  13.1392  13.1392  13.1392
    15.1479  15.1479  15.8788  15.8788  15.8788  15.8788  16.4652  16.4652
    18.4023  18.4023  18.7236  18.7236  18.8829  18.8829  18.8829  18.8829
    19.2123  19.2123  19.4237  19.4237  19.4237  19.4237  19.6444  19.6444

          k = 0.5625 0.5625 0.0000 (  3766 PWs)   bands (ev):

    -4.1346  -4.1346  -3.6542  -3.6542  -3.6542  -3.6542  -3.2205  -3.2205
     0.2066   0.2066   0.7314   0.7314   0.7314   0.7314   1.3572   1.3572
     2.1227   2.1227   2.5047   2.5047   2.5047   2.5047   2.9263   2.9263
     4.5948   4.5948   4.6996   4.6996   4.6996   4.6996   5.2112   5.2112
     8.3430   8.3430   8.9803   8.9803   8.9895   8.9895   8.9895   8.9895
    10.3628  10.3628  10.3628  10.3628  10.5002  10.5002  10.8385  10.8385
    11.5207  11.5207  11.5207  11.5207  11.5994  11.5994  11.9491  11.9491
    12.0244  12.0244  12.0244  12.0244  12.0790  12.0790  12.4431  12.4431
    12.7857  12.7857  13.0639  13.0639  13.5718  13.5718  13.5718  13.5718
    14.5786  14.5786  15.9055  15.9055  15.9055  15.9055  16.7754  16.7754
    17.8517  17.8517  18.4356  18.4356  18.9328  18.9328  18.9328  18.9328
    19.4178  19.4178  19.4178  19.4178  19.4823  19.4823  19.7354  19.7354

          k = 0.5893 0.5893 0.0000 (  3778 PWs)   bands (ev):

    -4.3141  -4.3141  -3.6182  -3.6182  -3.6181  -3.6181  -3.0191  -3.0191
    -0.0046  -0.0046   0.7116   0.7116   0.7116   0.7116   1.6379   1.6379
     2.0056   2.0056   2.5321   2.5321   2.5321   2.5321   3.1410   3.1410
     4.4660   4.4660   4.5210   4.5210   4.5210   4.5210   5.3376   5.3376
     8.1975   8.1975   9.0849   9.0849   9.2786   9.2786   9.2786   9.2786
    10.0263  10.0263  10.0263  10.0263  10.2988  10.2988  10.6282  10.6282
    11.1112  11.1112  11.1112  11.1112  11.8679  11.8679  11.9961  11.9961
    12.1973  12.1973  12.3602  12.3602  12.3602  12.3602  12.3789  12.3789
    12.9909  12.9909  13.2570  13.2570  14.0086  14.0086  14.0086  14.0086
    14.0108  14.0108  15.9464  15.9464  15.9464  15.9464  16.9323  16.9323
    17.2575  17.2575  18.2221  18.2221  19.0091  19.0091  19.0091  19.0091
    19.4091  19.4091  19.4091  19.4091  19.7620  19.7620  19.8527  19.8527

          k = 0.6161 0.6161 0.0000 (  3772 PWs)   bands (ev):

    -4.4853  -4.4853  -3.5695  -3.5695  -3.5695  -3.5695  -2.8212  -2.8212
    -0.2029  -0.2029   0.6813   0.6813   0.6813   0.6813   1.9135   1.9135
     1.9301   1.9301   2.5687   2.5687   2.5687   2.5687   3.3670   3.3670
     4.3191   4.3191   4.3191   4.3191   4.3412   4.3412   5.4587   5.4587
     8.0549   8.0549   9.1693   9.1693   9.6301   9.6301   9.6301   9.6301
     9.6942   9.6942   9.6942   9.6942  10.1097  10.1097  10.4289  10.4289
    10.7131  10.7131  10.7132  10.7132  11.9402  11.9402  12.1475  12.1475
    12.3419  12.3419  12.4045  12.4045  12.6920  12.6920  12.6920  12.6920
    13.2100  13.2100  13.4683  13.4683  13.4926  13.4926  14.4426  14.4426
    14.4426  14.4426  16.0011  16.0011  16.0011  16.0011  16.6707  16.6707
    16.9482  16.9482  18.0368  18.0368  19.1082  19.1082  19.1082  19.1082
    19.3994  19.3994  19.3994  19.3994  19.9473  19.9473  19.9473  19.9473

          k = 0.6429 0.6429 0.0000 (  3764 PWs)   bands (ev):

    -4.6472  -4.6472  -3.5082  -3.5082  -3.5082  -3.5082  -2.6301  -2.6301
    -0.3882  -0.3882   0.6376   0.6376   0.6376   0.6376   1.8492   1.8492
     2.2335   2.2335   2.6140   2.6140   2.6140   2.6140   3.6026   3.6026
     4.1125   4.1125   4.1125   4.1125   4.2212   4.2212   5.5730   5.5730
     7.9169   7.9169   9.2312   9.2312   9.3674   9.3674   9.3674   9.3674
     9.9330   9.9330  10.0103  10.0103  10.0104  10.0104  10.2406  10.2406
    10.3489  10.3489  10.3489  10.3489  11.9085  11.9085  12.3330  12.3330
    12.3866  12.3866  12.4388  12.4388  13.0169  13.0169  13.0169  13.0169
    13.2101  13.2101  13.4429  13.4429  13.6970  13.6970  14.8690  14.8690
    14.8690  14.8690  16.0692  16.0692  16.0692  16.0692  16.1031  16.1031
    16.8600  16.8600  17.8728  17.8728  19.2139  19.2139  19.2139  19.2139
    19.4017  19.4017  19.4017  19.4017  19.9138  19.9138  20.0588  20.0588

          k = 0.6696 0.6696 0.0000 (  3764 PWs)   bands (ev):

    -4.7994  -4.7994  -3.4345  -3.4345  -3.4344  -3.4344  -2.4492  -2.4492
    -0.5606  -0.5606   0.5769   0.5769   0.5769   0.5769   1.8160   1.8160
     2.5474   2.5474   2.6676   2.6676   2.6676   2.6676   3.8459   3.8459
     3.9154   3.9154   3.9154   3.9154   4.1069   4.1069   5.6792   5.6792
     7.7850   7.7850   9.0509   9.0509   9.0510   9.0510   9.2697   9.2697
     9.7688   9.7688   9.9128   9.9128   9.9128   9.9128  10.0630  10.0630
    10.5119  10.5119  10.5120  10.5120  11.8938  11.8938  11.9853  11.9853
    12.3531  12.3531  12.7386  12.7386  13.3324  13.3324  13.3330  13.3330
    13.3330  13.3330  13.6850  13.6850  13.9411  13.9411  15.2830  15.2830
    15.2830  15.2830  15.5649  15.5649  16.1498  16.1498  16.1498  16.1498
    16.7023  16.7023  17.7291  17.7291  19.2658  19.2658  19.2658  19.2658
    19.4642  19.4642  19.4642  19.4642  19.5769  19.5769  20.1799  20.1799

          k = 0.6964 0.6964 0.0000 (  3772 PWs)   bands (ev):

    -4.9412  -4.9412  -3.3484  -3.3484  -3.3483  -3.3483  -2.2822  -2.2822
    -0.7198  -0.7198   0.4959   0.4959   0.4959   0.4959   1.8168   1.8168
     2.7286   2.7286   2.7286   2.7286   2.8713   2.8713   3.7386   3.7386
     3.7386   3.7386   3.9992   3.9992   4.0952   4.0952   5.7764   5.7764
     7.6604   7.6604   8.7460   8.7460   8.7460   8.7460   9.2862   9.2862
     9.5593   9.5593   9.5594   9.5594   9.6173   9.6173   9.8960   9.8960
    10.9746  10.9746  10.9746  10.9746  11.4561  11.4561  11.8823  11.8823
    12.4022  12.4022  13.0489  13.0489  13.6025  13.6025  13.6391  13.6391
    13.6391  13.6391  13.9361  13.9361  14.1998  14.1998  15.0675  15.0675
    15.6803  15.6803  15.6803  15.6803  16.2418  16.2418  16.2418  16.2418
    16.4975  16.4975  17.6058  17.6058  19.2244  19.2244  19.2461  19.2461
    19.2461  19.2461  19.5737  19.5737  19.5737  19.5737  20.2987  20.2987

          k = 0.7232 0.7232 0.0000 (  3758 PWs)   bands (ev):

    -5.0722  -5.0722  -3.2500  -3.2500  -3.2500  -3.2500  -2.1324  -2.1324
    -0.8657  -0.8657   0.3921   0.3921   0.3921   0.3921   1.8541   1.8541
     2.7960   2.7960   2.7960   2.7960   3.2044   3.2044   3.5894   3.5894
     3.5894   3.5894   3.8986   3.8986   4.3484   4.3484   5.8636   5.8636
     7.5440   7.5440   8.4547   8.4547   8.4547   8.4547   9.2125   9.2125
     9.2125   9.2125   9.2839   9.2839   9.4785   9.4785   9.7394   9.7394
    10.9076  10.9076  11.4695  11.4695  11.4696  11.4696  11.8527  11.8527
    12.4802  12.4802  13.3683  13.3683  13.9154  13.9154  13.9349  13.9349
    13.9349  13.9349  14.1946  14.1946  14.4718  14.4718  14.6282  14.6282
    16.0574  16.0574  16.0574  16.0574  16.2594  16.2594  16.3441  16.3441
    16.3441  16.3441  17.5038  17.5038  18.8964  18.8964  19.1925  19.1925
    19.1925  19.1925  19.6241  19.6241  19.6241  19.6241  20.3990  20.3990

          k = 0.7500 0.7500 0.0000 (  3784 PWs)   bands (ev):

    -5.1920  -5.1920  -3.1396  -3.1396  -3.1396  -3.1396  -2.0024  -2.0024
    -0.9985  -0.9985   0.2642   0.2642   0.2642   0.2642   1.9290   1.9290
     2.8686   2.8686   2.8686   2.8686   3.4719   3.4719   3.4720   3.4720
     3.5458   3.5458   3.8058   3.8058   4.6029   4.6029   5.9407   5.9407
     7.4365   7.4365   8.1795   8.1795   8.1795   8.1795   8.8805   8.8805
     8.8805   8.8805   9.2661   9.2661   9.3527   9.3527   9.5929   9.5929
    10.3632  10.3632  11.7760  11.7760  11.9851  11.9851  11.9851  11.9851
    12.5860  12.5860  13.6959  13.6959  14.2204  14.2204  14.2204  14.2204
    14.2489  14.2489  14.2701  14.2701  14.4579  14.4579  14.7554  14.7554
    15.9983  15.9983  16.4113  16.4113  16.4113  16.4113  16.4551  16.4551
    16.4551  16.4551  17.4236  17.4236  18.6046  18.6046  19.1071  19.1071
    19.1071  19.1071  19.5534  19.5534  19.5534  19.5534  20.4616  20.4616

     Writing output data file bulk_Si.save/

     init_run     :      0.15s CPU      0.24s WALL (       1 calls)
     electrons    :    113.27s CPU    128.31s WALL (       1 calls)

     Called by init_run:
     wfcinit      :      0.00s CPU      0.01s WALL (       1 calls)
     potinit      :      0.05s CPU      0.13s WALL (       1 calls)
     hinit0       :      0.06s CPU      0.07s WALL (       1 calls)

     Called by electrons:
     c_bands      :    113.27s CPU    128.31s WALL (       1 calls)
     v_of_rho     :      0.03s CPU      0.04s WALL (       1 calls)

     Called by c_bands:
     init_us_2    :      0.06s CPU      0.10s WALL (      84 calls)
     cegterg      :    103.58s CPU    108.54s WALL (     172 calls)

     Called by sum_band:

     Called by *egterg:
     h_psi        :     32.63s CPU     33.52s WALL (    2485 calls)
     g_psi        :      0.77s CPU      0.81s WALL (    2229 calls)
     cdiaghg      :     48.25s CPU     48.75s WALL (    2313 calls)

     Called by h_psi:
     h_psi:pot    :     32.38s CPU     33.21s WALL (    2485 calls)
     h_psi:calbec :      3.26s CPU      3.34s WALL (    2485 calls)
     vloc_psi     :     24.33s CPU     25.03s WALL (    2485 calls)
     add_vuspsi   :      4.77s CPU      4.83s WALL (    2485 calls)

     General routines
     calbec       :      3.25s CPU      3.33s WALL (    2485 calls)
     fft          :      0.03s CPU      0.03s WALL (      18 calls)
     ffts         :      0.00s CPU      0.07s WALL (       4 calls)
     fftw         :     18.18s CPU     18.69s WALL (  126784 calls)
     interpolate  :      0.01s CPU      0.08s WALL (       4 calls)
     davcio       :      0.11s CPU      9.59s WALL (     168 calls)

     Parallel routines
     fft_scatt_xy :      3.49s CPU      3.59s WALL (  126806 calls)
     fft_scatt_yz :      3.85s CPU      3.99s WALL (  126806 calls)

     PWSCF        :   1m54.48s CPU   2m26.73s WALL


   This run was terminated on:  16: 4:14  18Apr2022            

=------------------------------------------------------------------------------=
   JOB DONE.
=------------------------------------------------------------------------------=
