     Message from routine get_command_line:
     unexpected argument # 2     :4.0

     Program PWSCF v.6.4.1 starts on 18Apr2022 at 16: 0:54 

     This program is part of the open-source Quantum ESPRESSO suite
     for quantum simulation of materials; please cite
         "P. Giannozzi et al., J. Phys.:Condens. Matter 21 395502 (2009);
         "P. Giannozzi et al., J. Phys.:Condens. Matter 29 465901 (2017);
          URL http://www.quantum-espresso.org", 
     in publications or presentations arising from this work. More details at
     http://www.quantum-espresso.org/quote

     Parallel version (MPI), running on    16 processors

     MPI processes distributed on     1 nodes
     band groups division:  nbgrp     =       4
     R & G space division:  proc/nbgrp/npool/nimage =       4
     Waiting for input...
     Reading input from standard input

     Current dimensions of program PWSCF are:
     Max number of different atomic species (ntypx) = 10
     Max number of k-points (npk) =  40000
     Max angular momentum in pseudopotentials (lmaxx) =  3

     Subspace diagonalization in iterative solution of the eigenvalue problem:
     a serial algorithm will be used

     Found symmetry operation: I + (  0.0000 -0.5000 -0.5000)
     This is a supercell, fractional translations are disabled

     Parallelization info
     --------------------
     sticks:   dense  smooth     PW     G-vecs:    dense   smooth      PW
     Min         735     296     87                29877     7553    1235
     Max         736     297     88                29880     7554    1238
     Sum        2941    1185    349               119513    30215    4945


     Title: 
     Bulk Silicon                                                               


     bravais-lattice index     =            1
     lattice parameter (alat)  =      10.2612  a.u.
     unit-cell volume          =    1080.4287 (a.u.)^3
     number of atoms/cell      =            8
     number of atomic types    =            1
     number of electrons       =        32.00
     number of Kohn-Sham states=           96
     kinetic-energy cutoff     =      35.0000  Ry
     charge density cutoff     =     350.0000  Ry
     convergence threshold     =      1.0E-06
     mixing beta               =       0.7000
     number of iterations used =            8  plain     mixing
     Exchange-correlation      = PBE ( 1  4  3  4 0 0)
     Non magnetic calculation with spin-orbit


     celldm(1)=  10.261213  celldm(2)=   0.000000  celldm(3)=   0.000000
     celldm(4)=   0.000000  celldm(5)=   0.000000  celldm(6)=   0.000000

     crystal axes: (cart. coord. in units of alat)
               a(1) = (   1.000000   0.000000   0.000000 )  
               a(2) = (   0.000000   1.000000   0.000000 )  
               a(3) = (   0.000000   0.000000   1.000000 )  

     reciprocal axes: (cart. coord. in units 2 pi/alat)
               b(1) = (  1.000000  0.000000  0.000000 )  
               b(2) = (  0.000000  1.000000  0.000000 )  
               b(3) = (  0.000000  0.000000  1.000000 )  


     PseudoPot. # 1 for Si read from file:
     input/Si-rel.upf
     MD5 check sum: d8e8ea3dd55db7858206a05f373c9c65
     Pseudo is Norm-conserving + core correction, Zval =  4.0
     Generated using ONCVPSP code by D. R. Hamann
     Using radial grid of 1528 points, 10 beta functions with: 
                l(1) =   0
                l(2) =   0
                l(3) =   1
                l(4) =   1
                l(5) =   1
                l(6) =   1
                l(7) =   2
                l(8) =   2
                l(9) =   2
               l(10) =   2

     atomic species   valence    mass     pseudopotential
        Si             4.00    28.05900     Si( 1.00)

     24 Sym. Ops. (no inversion) found



   Cartesian axes

     site n.     atom                  positions (alat units)
         1           Si  tau(   1) = (   0.0000000   0.0000000   0.0000000  )
         2           Si  tau(   2) = (   0.0000000   0.5000000   0.5000000  )
         3           Si  tau(   3) = (   0.5000000   0.5000000   0.0000000  )
         4           Si  tau(   4) = (   0.5000000   0.0000000   0.5000000  )
         5           Si  tau(   5) = (   0.7500000   0.2500000   0.7500000  )
         6           Si  tau(   6) = (   0.2500000   0.2500000   0.2500000  )
         7           Si  tau(   7) = (   0.2500000   0.7500000   0.7500000  )
         8           Si  tau(   8) = (   0.7500000   0.7500000   0.2500000  )

     number of k points=    35 (tetrahedron method)
                       cart. coord. in units 2pi/alat
        k(    1) = (   0.0000000   0.0000000   0.0000000), wk =   0.0019531
        k(    2) = (   0.0000000   0.0000000   0.1250000), wk =   0.0117188
        k(    3) = (   0.0000000   0.0000000   0.2500000), wk =   0.0117188
        k(    4) = (   0.0000000   0.0000000   0.3750000), wk =   0.0117188
        k(    5) = (   0.0000000   0.0000000  -0.5000000), wk =   0.0058594
        k(    6) = (   0.0000000   0.1250000   0.1250000), wk =   0.0234375
        k(    7) = (   0.0000000   0.1250000   0.2500000), wk =   0.0468750
        k(    8) = (   0.0000000   0.1250000   0.3750000), wk =   0.0468750
        k(    9) = (   0.0000000   0.1250000  -0.5000000), wk =   0.0234375
        k(   10) = (   0.0000000   0.2500000   0.2500000), wk =   0.0234375
        k(   11) = (   0.0000000   0.2500000   0.3750000), wk =   0.0468750
        k(   12) = (   0.0000000   0.2500000  -0.5000000), wk =   0.0234375
        k(   13) = (   0.0000000   0.3750000   0.3750000), wk =   0.0234375
        k(   14) = (   0.0000000   0.3750000  -0.5000000), wk =   0.0234375
        k(   15) = (   0.0000000  -0.5000000  -0.5000000), wk =   0.0058594
        k(   16) = (   0.1250000   0.1250000   0.1250000), wk =   0.0156250
        k(   17) = (   0.1250000   0.1250000   0.2500000), wk =   0.0468750
        k(   18) = (   0.1250000   0.1250000   0.3750000), wk =   0.0468750
        k(   19) = (   0.1250000   0.1250000  -0.5000000), wk =   0.0234375
        k(   20) = (   0.1250000   0.2500000   0.2500000), wk =   0.0468750
        k(   21) = (   0.1250000   0.2500000   0.3750000), wk =   0.0937500
        k(   22) = (   0.1250000   0.2500000  -0.5000000), wk =   0.0468750
        k(   23) = (   0.1250000   0.3750000   0.3750000), wk =   0.0468750
        k(   24) = (   0.1250000   0.3750000  -0.5000000), wk =   0.0468750
        k(   25) = (   0.1250000  -0.5000000  -0.5000000), wk =   0.0117188
        k(   26) = (   0.2500000   0.2500000   0.2500000), wk =   0.0156250
        k(   27) = (   0.2500000   0.2500000   0.3750000), wk =   0.0468750
        k(   28) = (   0.2500000   0.2500000  -0.5000000), wk =   0.0234375
        k(   29) = (   0.2500000   0.3750000   0.3750000), wk =   0.0468750
        k(   30) = (   0.2500000   0.3750000  -0.5000000), wk =   0.0468750
        k(   31) = (   0.2500000  -0.5000000  -0.5000000), wk =   0.0117188
        k(   32) = (   0.3750000   0.3750000   0.3750000), wk =   0.0156250
        k(   33) = (   0.3750000   0.3750000  -0.5000000), wk =   0.0234375
        k(   34) = (   0.3750000  -0.5000000  -0.5000000), wk =   0.0117188
        k(   35) = (  -0.5000000  -0.5000000  -0.5000000), wk =   0.0019531

     Dense  grid:   119513 G-vectors     FFT dimensions: (  64,  64,  64)

     Smooth grid:    30215 G-vectors     FFT dimensions: (  40,  40,  40)

     Estimated max dynamical RAM per process >     191.18 MB

     Estimated total dynamical RAM >       2.99 GB

     Initial potential from superposition of free atoms

     starting charge   31.99510, renormalised to   32.00000
     Starting wfcs are   64 randomized atomic wfcs +   32 random wfcs

     total cpu time spent up to now is        2.0 secs

     Self-consistent Calculation

     iteration #  1     ecut=    35.00 Ry     beta= 0.70
     Davidson diagonalization with overlap
     ethr =  1.00E-02,  avg # of iterations =  7.2

     Threshold (ethr) on eigenvalues was too large:
     Diagonalizing with lowered threshold

     Davidson diagonalization with overlap
     ethr =  7.18E-04,  avg # of iterations =  2.3

     total cpu time spent up to now is       22.9 secs

     total energy              =     -67.68718138 Ry
     Harris-Foulkes estimate   =     -67.74652112 Ry
     estimated scf accuracy    <       0.22819713 Ry

     iteration #  2     ecut=    35.00 Ry     beta= 0.70
     Davidson diagonalization with overlap
     ethr =  7.13E-04,  avg # of iterations =  1.3

     total cpu time spent up to now is       27.9 secs

     total energy              =     -67.69655398 Ry
     Harris-Foulkes estimate   =     -67.69720515 Ry
     estimated scf accuracy    <       0.00801213 Ry

     iteration #  3     ecut=    35.00 Ry     beta= 0.70
     Davidson diagonalization with overlap
     ethr =  2.50E-05,  avg # of iterations =  7.3

     total cpu time spent up to now is       39.2 secs

     total energy              =     -67.69678133 Ry
     Harris-Foulkes estimate   =     -67.69676125 Ry
     estimated scf accuracy    <       0.00017016 Ry

     iteration #  4     ecut=    35.00 Ry     beta= 0.70
     Davidson diagonalization with overlap
     c_bands:  1 eigenvalues not converged
     ethr =  5.32E-07,  avg # of iterations =  3.8

     total cpu time spent up to now is       47.2 secs

     End of self-consistent calculation

          k = 0.0000 0.0000 0.0000 (  3791 PWs)   bands (ev):

    -5.7323  -5.7323  -1.5884  -1.5884  -1.5884  -1.5884  -1.5884  -1.5884
    -1.5884  -1.5884  -1.5884  -1.5884  -1.5884  -1.5884   3.3786   3.3786
     3.3786   3.3786   3.3786   3.3786   3.3786   3.3786   3.3786   3.3786
     3.3786   3.3786   6.2027   6.2027   6.2505   6.2505   6.2505   6.2505
     6.9418   6.9418   6.9418   6.9418   6.9419   6.9419   6.9419   6.9419
     6.9419   6.9419   6.9419   6.9419   8.7677   8.7677   8.8026   8.8026
     8.8026   8.8026   9.5802   9.5802  13.9632  13.9632  13.9632  13.9632
    14.1946  14.1946  16.3272  16.3272  16.3272  16.3272  16.3272  16.3272
    16.3272  16.3272  16.3272  16.3272  16.3272  16.3272  17.2233  17.2233
    17.2233  17.2233  17.2233  17.2233  17.2233  17.2233  17.2233  17.2233
    17.2233  17.2233  17.4831  17.4831  17.4936  17.4936  17.4936  17.4936
    18.7672  18.7672  18.7672  18.7672  18.7672  18.7673  18.7673  18.7674

          k = 0.0000 0.0000 0.1250 (  3807 PWs)   bands (ev):

    -5.6639  -5.6639  -2.5120  -2.5120  -1.5672  -1.5672  -1.5672  -1.5672
    -1.5653  -1.5653  -1.5653  -1.5653  -0.5833  -0.5833   3.1885   3.1885
     3.1885   3.1885   3.1947   3.1947   3.1947   3.1947   3.4394   3.4394
     3.4412   3.4412   5.8100   5.8100   5.9607   5.9607   5.9837   5.9837
     6.8089   6.8089   7.2596   7.2596   7.2994   7.2994   7.2994   7.2994
     7.3036   7.3036   7.3036   7.3036   8.6297   8.6297   9.1307   9.1307
     9.1471   9.1471   9.9825   9.9825  13.4795  13.4795  14.0390  14.0390
    14.4903  14.4903  15.4418  15.4418  15.4506  15.4506  15.6216  15.6216
    15.6216  15.6216  15.6320  15.6320  15.6320  15.6321  16.8739  16.8739
    16.8739  16.8739  16.8836  16.8837  16.8837  16.8837  17.6054  17.6054
    17.6123  17.6123  17.6502  17.6502  17.8246  17.8247  18.1162  18.1162
    18.1234  18.1234  18.1982  18.1982  18.9909  18.9924  18.9943  18.9976

          k = 0.0000 0.0000 0.2500 (  3791 PWs)   bands (ev):

    -5.4594  -5.4594  -3.3381  -3.3381  -1.5122  -1.5122  -1.5122  -1.5122
    -1.5086  -1.5086  -1.5086  -1.5086   0.4833   0.4833   2.8091   2.8091
     2.8091   2.8091   2.8192   2.8192   2.8192   2.8192   3.6226   3.6226
     3.6262   3.6262   4.8967   4.8967   5.4175   5.4175   5.4346   5.4346
     6.8463   6.8463   7.7726   7.7726   8.2001   8.2001   8.2001   8.2001
     8.2061   8.2061   8.2061   8.2061   8.2405   8.2405   9.9294   9.9294
     9.9374   9.9374  10.6179  10.6179  12.7473  12.7473  14.0719  14.0719
    14.0719  14.0719  14.0824  14.0824  14.0824  14.0824  14.2660  14.2661
    14.2668  14.2668  14.2748  14.2748  15.2803  15.2803  16.6771  16.6771
    16.8018  16.8018  16.8018  16.8018  16.8152  16.8152  16.8152  16.8152
    16.9490  16.9490  17.9589  17.9590  17.9652  17.9652  18.4488  18.4488
    19.1074  19.1074  19.1074  19.1075  19.1203  19.1203  19.1203  19.1205

          k = 0.0000 0.0000 0.3750 (  3780 PWs)   bands (ev):

    -5.1205  -5.1205  -4.0541  -4.0541  -1.4531  -1.4531  -1.4531  -1.4531
    -1.4481  -1.4481  -1.4481  -1.4481   1.5893   1.5893   2.4918   2.4918
     2.4918   2.4918   2.5039   2.5039   2.5039   2.5039   3.8272   3.8272
     3.9244   3.9244   3.9302   3.9302   4.8463   4.8463   4.8583   4.8583
     7.0375   7.0375   7.7811   7.7811   8.4830   8.4830   9.4021   9.4021
     9.4021   9.4021   9.4080   9.4080   9.4080   9.4080  10.2918  10.2918
    10.9149  10.9149  10.9170  10.9170  12.4618  12.4618  12.4618  12.4618
    12.4725  12.4725  12.4725  12.4725  13.1086  13.1086  13.1143  13.1143
    13.1180  13.1180  14.6444  14.6444  15.6203  15.6203  15.8507  15.8507
    16.3897  16.3898  16.7997  16.7997  16.7997  16.7997  16.8156  16.8156
    16.8156  16.8156  18.5303  18.5303  18.5359  18.5359  18.9481  18.9482
    19.1435  19.1436  19.2147  19.2147  19.2147  19.2147  19.2323  19.2324

          k = 0.0000 0.0000-0.5000 (  3804 PWs)   bands (ev):

    -4.6505  -4.6505  -4.6505  -4.6505  -1.4273  -1.4273  -1.4273  -1.4273
    -1.4217  -1.4217  -1.4217  -1.4217   2.3717   2.3717   2.3717   2.3717
     2.3845   2.3845   2.3845   2.3845   2.7119   2.7119   2.7119   2.7119
     4.3373   4.3373   4.3373   4.3373   4.3458   4.3458   4.3458   4.3458
     7.3603   7.3603   7.3603   7.3603   9.3657   9.3657   9.3657   9.3657
    10.5064  10.5064  10.5064  10.5064  10.5065  10.5065  10.5065  10.5065
    11.2226  11.2226  11.2226  11.2226  11.2391  11.2391  11.2391  11.2391
    11.9866  11.9866  11.9866  11.9866  11.9890  11.9890  11.9890  11.9890
    14.2892  14.2893  14.2893  14.2893  15.1728  15.1728  15.1728  15.1729
    16.8021  16.8021  16.8021  16.8021  16.8189  16.8189  16.8189  16.8189
    17.6694  17.6694  17.6694  17.6694  19.2448  19.2448  19.2448  19.2448
    19.2498  19.2499  19.2499  19.2499  19.2626  19.2626  19.2626  19.2626

          k = 0.0000 0.1250 0.1250 (  3803 PWs)   bands (ev):

    -5.5959  -5.5959  -2.4724  -2.4724  -2.4724  -2.4724  -1.6578  -1.6578
    -1.4405  -1.4405  -0.5898  -0.5898  -0.5898  -0.5898   2.7016   2.7016
     3.2173   3.2173   3.2173   3.2173   3.3050   3.3050   3.3050   3.3050
     3.4878   3.4878   5.1844   5.1844   5.7063   5.7063   6.1714   6.1714
     7.0678   7.0678   7.1877   7.1877   7.1877   7.1877   7.5934   7.5934
     7.5934   7.5934   8.0829   8.0829   8.9298   8.9298   9.0392   9.0392
     9.0847   9.0847  10.5116  10.5116  13.3625  13.3625  13.8330  13.8330
    14.5295  14.5295  14.5295  14.5295  14.7602  14.7602  15.2778  15.2778
    15.4397  15.4397  15.4397  15.4397  15.6650  15.6650  15.9465  15.9465
    16.1799  16.1799  17.0121  17.0121  17.0121  17.0121  17.3468  17.3469
    17.7327  17.7327  17.7327  17.7328  17.7376  17.7376  18.1476  18.1476
    18.1476  18.1476  18.5560  18.5560  19.0456  19.0457  19.0457  19.0457

          k = 0.0000 0.1250 0.2500 (  3791 PWs)   bands (ev):

    -5.3924  -5.3924  -3.2875  -3.2875  -2.3600  -2.3600  -1.7432  -1.7432
    -1.2711  -1.2711  -0.6228  -0.6228   0.4299   0.4299   2.2722   2.2722
     2.7596   2.7596   3.0477   3.0477   3.3774   3.3774   3.4103   3.4103
     3.5614   3.5614   4.3390   4.3390   5.1581   5.1581   5.8103   5.8103
     7.2372   7.2372   7.5474   7.5474   8.0752   8.0752   8.1164   8.1164
     8.4534   8.4534   8.6064   8.6064   9.1808   9.1808   9.5049   9.5049
     9.8067   9.8067  11.1587  11.1587  12.8361  12.8361  12.9868  12.9868
    13.4327  13.4327  13.9475  13.9475  14.0484  14.0485  14.2583  14.2583
    14.2832  14.2832  15.1598  15.1598  15.4778  15.4778  15.5922  15.5922
    15.6225  15.6225  16.2082  16.2082  16.6862  16.6862  17.4859  17.4859
    17.4879  17.4879  17.6874  17.6874  18.0651  18.0651  18.1233  18.1233
    18.4989  18.4989  19.3100  19.3101  19.4421  19.4421  19.6033  19.6033

          k = 0.0000 0.1250 0.3750 (  3769 PWs)   bands (ev):

    -5.0553  -5.0553  -3.9964  -3.9964  -2.1959  -2.1959  -1.8572  -1.8572
    -1.0697  -1.0697  -0.7117  -0.7117   1.4602   1.4602   2.0440   2.0440
     2.3318   2.3318   2.8877   2.8877   3.1416   3.1416   3.4294   3.4294
     3.6657   3.6657   3.9636   3.9636   4.5820   4.5820   5.1583   5.1583
     7.4331   7.4331   8.1642   8.1642   8.5542   8.5542   8.7508   8.7508
     9.3376   9.3376   9.6154   9.6154  10.1691  10.1691  10.4541  10.4541
    10.8086  10.8086  10.8175  10.8175  11.4390  11.4390  12.3822  12.3822
    12.3966  12.3967  12.6577  12.6577  13.0733  13.0733  13.3859  13.3859
    13.6122  13.6122  14.5839  14.5839  15.5149  15.5149  15.5298  15.5298
    15.6044  15.6044  16.4619  16.4619  16.4683  16.4683  16.5175  16.5175
    17.1943  17.1943  17.9528  17.9528  18.3831  18.3832  18.7551  18.7551
    18.8328  18.8328  19.3769  19.3770  19.4373  19.4373  20.1169  20.1172

          k = 0.0000 0.1250-0.5000 (  3790 PWs)   bands (ev):

    -4.5882  -4.5882  -4.5882  -4.5882  -2.0150  -2.0150  -2.0150  -2.0150
    -0.8690  -0.8690  -0.8689  -0.8689   2.0697   2.0697   2.0697   2.0697
     2.4677   2.4677   2.4677   2.4677   2.9256   2.9256   2.9256   2.9256
     4.0727   4.0727   4.0727   4.0727   4.5067   4.5067   4.5067   4.5067
     7.7533   7.7533   7.7533   7.7533   9.5914   9.5914   9.5914   9.5914
     9.8152   9.8152   9.8152   9.8152  10.6839  10.6839  10.6839  10.6839
    11.1579  11.1579  11.1579  11.1579  11.3901  11.3901  11.3901  11.3901
    11.9191  11.9191  11.9191  11.9191  12.0992  12.0992  12.0992  12.0992
    14.4929  14.4929  14.4929  14.4929  15.3850  15.3851  15.3851  15.3851
    15.5134  15.5134  15.5134  15.5134  16.8620  16.8620  16.8620  16.8620
    17.5545  17.5545  17.5545  17.5546  18.6561  18.6561  18.6561  18.6562
    19.1293  19.1293  19.1293  19.1293  19.5550  19.5550  19.5551  19.5551

          k = 0.0000 0.2500 0.2500 (  3784 PWs)   bands (ev):

    -5.1920  -5.1920  -3.1395  -3.1395  -3.1395  -3.1395  -2.0022  -2.0022
    -0.9983  -0.9983   0.2644   0.2644   0.2644   0.2644   1.9288   1.9288
     2.8685   2.8685   2.8685   2.8685   3.4720   3.4720   3.4720   3.4720
     3.5460   3.5460   3.8060   3.8060   4.6030   4.6030   5.9409   5.9409
     7.4357   7.4357   8.1789   8.1789   8.1789   8.1789   8.8799   8.8799
     8.8799   8.8799   9.2663   9.2663   9.3529   9.3529   9.5925   9.5925
    10.3627  10.3627  11.7757  11.7757  11.9851  11.9851  11.9851  11.9851
    12.5860  12.5860  13.6960  13.6961  14.2204  14.2204  14.2204  14.2204
    14.2485  14.2485  14.2703  14.2703  14.4577  14.4577  14.7554  14.7554
    15.9959  15.9959  16.4115  16.4115  16.4115  16.4115  16.4548  16.4548
    16.4548  16.4548  17.4221  17.4221  18.6038  18.6038  19.1072  19.1072
    19.1072  19.1073  19.5531  19.5531  19.5531  19.5532  20.4603  20.4603

          k = 0.0000 0.2500 0.3750 (  3767 PWs)   bands (ev):

    -4.8608  -4.8608  -3.8258  -3.8258  -2.9074  -2.9074  -2.3002  -2.3002
    -0.6835  -0.6835  -0.0064  -0.0064   1.1202   1.1202   1.8415   1.8415
     2.3687   2.3687   2.7420   2.7420   3.1262   3.1262   3.4941   3.4941
     3.8270   3.8270   4.0231   4.0231   4.0774   4.0774   5.5140   5.5140
     8.0182   8.0182   8.3739   8.3739   9.0561   9.0561   9.4027   9.4027
     9.4890   9.4890   9.5847   9.5847   9.9549   9.9549  10.5601  10.5601
    10.5764  10.5764  11.0812  11.0812  11.2429  11.2429  11.6043  11.6043
    12.4555  12.4555  12.9640  12.9640  12.9690  12.9690  13.0328  13.0328
    14.0504  14.0504  14.1552  14.1552  14.8331  14.8331  15.0141  15.0141
    15.1825  15.1825  15.2457  15.2457  15.9779  15.9779  16.6816  16.6816
    17.3406  17.3406  17.7496  17.7496  17.8255  17.8255  19.1486  19.1486
    19.3657  19.3657  19.8014  19.8014  20.1100  20.1101  20.3856  20.3858

          k = 0.0000 0.2500-0.5000 (  3782 PWs)   bands (ev):

    -4.4031  -4.4031  -4.4031  -4.4031  -2.6154  -2.6154  -2.6154  -2.6154
    -0.3404  -0.3404  -0.3404  -0.3404   1.9396   1.9396   1.9396   1.9396
     2.0032   2.0032   2.0033   2.0033   3.5179   3.5179   3.5179   3.5179
     3.6473   3.6473   3.6473   3.6473   4.8042   4.8042   4.8042   4.8042
     8.6785   8.6785   8.6785   8.6785   9.1008   9.1008   9.1008   9.1008
    10.1288  10.1288  10.1288  10.1288  10.4306  10.4307  10.4307  10.4307
    10.7777  10.7777  10.7778  10.7778  11.4468  11.4468  11.4468  11.4468
    11.7333  11.7333  11.7333  11.7333  13.2630  13.2630  13.2630  13.2630
    14.0254  14.0254  14.0254  14.0254  14.1008  14.1008  14.1008  14.1008
    15.4824  15.4824  15.4824  15.4824  16.4855  16.4855  16.4855  16.4855
    17.3189  17.3189  17.3189  17.3189  18.3505  18.3505  18.3505  18.3505
    20.1032  20.1032  20.1032  20.1032  20.3123  20.3123  20.3123  20.3124

          k = 0.0000 0.3750 0.3750 (  3780 PWs)   bands (ev):

    -4.5403  -4.5403  -3.5504  -3.5504  -3.5504  -3.5504  -2.7565  -2.7565
    -0.2660  -0.2660   0.6686   0.6686   0.6686   0.6686   1.8885   1.8885
     2.0302   2.0302   2.5827   2.5827   2.5827   2.5827   3.4445   3.4445
     4.2501   4.2501   4.2501   4.2501   4.3008   4.3008   5.4979   5.4979
     8.0077   8.0077   9.1925   9.1925   9.5831   9.5831   9.5831   9.5831
     9.7582   9.7582   9.7582   9.7582  10.0496  10.0496  10.3644  10.3644
    10.5844  10.5844  10.5844  10.5844  11.9266  11.9266  12.2432  12.2432
    12.3356  12.3356  12.4403  12.4403  12.8011  12.8011  12.8011  12.8011
    13.2840  13.2840  13.3563  13.3563  13.5428  13.5428  14.5857  14.5857
    14.5857  14.5857  16.0219  16.0219  16.0219  16.0219  16.4786  16.4786
    16.9267  16.9267  17.9783  17.9783  19.1432  19.1432  19.1432  19.1432
    19.3974  19.3974  19.3974  19.3974  19.9815  19.9815  19.9816  19.9862

          k = 0.0000 0.3750-0.5000 (  3770 PWs)   bands (ev):

    -4.1001  -4.1001  -4.1000  -4.1000  -3.1854  -3.1854  -3.1854  -3.1854
     0.1904   0.1904   0.1904   0.1904   1.3396   1.3396   1.3396   1.3396
     2.1506   2.1506   2.1506   2.1506   2.9501   2.9501   2.9501   2.9501
     4.3911   4.3911   4.3911   4.3911   5.0033   5.0033   5.0033   5.0033
     8.6534   8.6534   8.6534   8.6534   9.2890   9.2890   9.2890   9.2890
     9.8532   9.8532   9.8532   9.8532  10.9376  10.9376  10.9376  10.9376
    11.2646  11.2646  11.2646  11.2646  11.4839  11.4839  11.4839  11.4839
    11.9074  11.9074  11.9075  11.9075  12.6119  12.6119  12.6119  12.6119
    13.2805  13.2805  13.2805  13.2805  13.9708  13.9708  13.9708  13.9708
    14.6063  14.6063  14.6063  14.6064  16.8422  16.8422  16.8422  16.8422
    17.8576  17.8577  17.8577  17.8577  18.5057  18.5057  18.5057  18.5057
    19.5530  19.5531  19.5531  19.5531  19.7808  19.7809  19.7809  19.7811

          k = 0.0000-0.5000-0.5000 (  3724 PWs)   bands (ev):

    -3.6888  -3.6888  -3.6888  -3.6888  -3.6888  -3.6888  -3.6888  -3.6888
     0.7485   0.7485   0.7485   0.7485   0.7485   0.7485   0.7485   0.7485
     2.4779   2.4779   2.4779   2.4779   2.4779   2.4779   2.4779   2.4779
     4.9041   4.9041   4.9041   4.9041   4.9041   4.9041   4.9041   4.9041
     8.6799   8.6799   8.6799   8.6799   8.6799   8.6799   8.6799   8.6799
    11.0177  11.0177  11.0177  11.0177  11.0177  11.0177  11.0177  11.0177
    11.3697  11.3697  11.3697  11.3697  11.3697  11.3697  11.3697  11.3697
    12.3730  12.3730  12.3730  12.3730  12.3730  12.3730  12.3730  12.3730
    12.6916  12.6916  12.6916  12.6916  12.6916  12.6916  12.6916  12.6916
    15.8655  15.8655  15.8655  15.8655  15.8655  15.8655  15.8655  15.8655
    18.8574  18.8574  18.8574  18.8574  18.8574  18.8574  18.8574  18.8574
    19.4270  19.4270  19.4270  19.4270  19.4271  19.4271  19.4271  19.4271

          k = 0.1250 0.1250 0.1250 (  3797 PWs)   bands (ev):

    -5.5282  -5.5282  -2.4409  -2.4409  -2.4409  -2.4409  -2.4409  -2.4409
    -0.6018  -0.6018  -0.6017  -0.6017  -0.6017  -0.6017   2.7950   2.7950
     2.7950   2.7950   2.7950   2.7950   3.5482   3.5482   3.5482   3.5482
     3.5482   3.5482   4.6321   4.6321   5.9291   5.9291   5.9603   5.9603
     7.1264   7.1264   7.1264   7.1264   7.1264   7.1264   8.2000   8.2000
     8.2000   8.2000   8.2000   8.2000   8.7279   8.7279   9.2044   9.2044
     9.2281   9.2281  10.9323  10.9323  13.4817  13.4817  13.4820  13.4820
    14.4963  14.4963  14.4963  14.4963  14.4963  14.4963  14.5835  14.5835
    14.5835  14.5835  14.5835  14.5835  14.9801  14.9801  16.9309  16.9309
    16.9911  16.9911  16.9911  16.9912  16.9912  16.9912  17.0467  17.0467
    17.0467  17.0467  17.0467  17.0468  18.5523  18.5523  18.5523  18.5523
    18.5523  18.5523  18.6494  18.6494  18.6558  18.6558  19.1048  19.1048

          k = 0.1250 0.1250 0.2500 (  3780 PWs)   bands (ev):

    -5.3258  -5.3258  -3.2404  -3.2404  -2.3586  -2.3586  -2.3586  -2.3586
    -0.6423  -0.6423  -0.6423  -0.6423   0.3545   0.3545   2.3963   2.3963
     2.3964   2.3964   3.0793   3.0793   3.4862   3.4862   3.4862   3.4862
     3.7281   3.7281   3.8273   3.8273   5.4512   5.4512   5.6883   5.6883
     7.3003   7.3003   7.6186   7.6186   7.6186   7.6186   8.5506   8.5506
     8.7243   8.7243   9.2313   9.2313   9.2740   9.2740   9.2740   9.2740
     9.8808   9.8808  11.5269  11.5269  12.9792  12.9792  13.0142  13.0142
    13.0142  13.0142  13.3901  13.3901  13.4743  13.4743  13.8402  13.8402
    14.5499  14.5499  14.5499  14.5499  15.3837  15.3837  15.3837  15.3837
    15.5319  15.5319  17.1031  17.1031  17.1409  17.1409  17.1409  17.1409
    17.3356  17.3356  17.6731  17.6731  18.0567  18.0568  18.2971  18.2971
    18.6315  18.6315  18.6315  18.6315  18.9367  18.9367  19.7339  19.7339

          k = 0.1250 0.1250 0.3750 (  3776 PWs)   bands (ev):

    -4.9908  -4.9908  -3.9406  -3.9406  -2.2648  -2.2648  -2.2648  -2.2648
    -0.7036  -0.7036  -0.7036  -0.7036   1.2880   1.2880   2.1702   2.1702
     2.1702   2.1702   3.0055   3.0055   3.2711   3.2711   3.2711   3.2711
     3.5602   3.5602   4.0232   4.0232   4.9118   4.9118   4.9908   4.9908
     7.5819   7.5819   8.3782   8.3782   8.6210   8.6210   8.6210   8.6210
     9.1278   9.1278   9.9337   9.9337  10.5163  10.5163  10.5163  10.5163
    10.6986  10.6986  10.9864  10.9864  11.5068  11.5068  11.5068  11.5068
    12.2277  12.2277  12.5008  12.5008  13.6699  13.6699  13.6699  13.6699
    13.7343  13.7343  14.4325  14.4325  14.6372  14.6372  14.6372  14.6372
    16.2215  16.2215  16.2636  16.2636  16.4083  16.4083  17.3164  17.3164
    17.3164  17.3164  17.8296  17.8297  17.8967  17.8967  18.4604  18.4604
    18.4604  18.4604  19.3751  19.3751  19.4398  19.4398  20.0034  20.0034

          k = 0.1250 0.1250-0.5000 (  3776 PWs)   bands (ev):

    -4.5271  -4.5271  -4.5271  -4.5271  -2.2215  -2.2215  -2.2215  -2.2215
    -0.7366  -0.7366  -0.7366  -0.7366   2.1061   2.1061   2.1061   2.1061
     2.1688   2.1688   2.1688   2.1688   3.1647   3.1647   3.1647   3.1647
     4.2214   4.2214   4.2214   4.2214   4.4245   4.4245   4.4246   4.4246
     7.9541   7.9541   7.9542   7.9542   9.7752   9.7752   9.7752   9.7752
     9.8842   9.8842   9.8842   9.8842  10.0557  10.0557  10.0557  10.0557
    11.1409  11.1409  11.1409  11.1409  11.5784  11.5784  11.5784  11.5784
    11.8836  11.8836  11.8836  11.8836  12.3198  12.3199  12.3199  12.3199
    14.6361  14.6361  14.6361  14.6361  15.0257  15.0257  15.0257  15.0257
    15.2389  15.2389  15.2389  15.2389  17.1036  17.1037  17.1037  17.1037
    17.4156  17.4156  17.4156  17.4156  18.3575  18.3575  18.3575  18.3575
    18.8766  18.8766  18.8766  18.8766  19.7845  19.7845  19.7845  19.7845

          k = 0.1250 0.2500 0.2500 (  3770 PWs)   bands (ev):

    -5.1269  -5.1269  -3.1051  -3.1051  -3.1051  -3.1051  -2.3799  -2.3799
    -0.6713  -0.6713   0.1391   0.1391   0.1391   0.1391   2.1316   2.1316
     2.7564   2.7564   2.7564   2.7564   3.0560   3.0560   3.7214   3.7214
     3.7214   3.7214   3.8616   3.8616   5.0485   5.0485   5.8078   5.8078
     7.5166   7.5166   7.8257   7.8257   7.8257   7.8257   8.7179   8.7179
     9.4550   9.4550   9.5576   9.5576   9.5576   9.5576   9.8185   9.8185
    10.4423  10.4423  12.0045  12.0045  12.0045  12.0045  12.1922  12.1922
    12.8087  12.8087  13.0364  13.0364  13.1472  13.1472  13.4247  13.4247
    13.4247  13.4247  14.0409  14.0410  15.5302  15.5302  15.5428  15.5428
    15.6550  15.6550  16.4854  16.4854  16.4854  16.4854  17.1654  17.1654
    17.1654  17.1654  17.4217  17.4217  18.2987  18.2987  18.2987  18.2987
    19.0818  19.0818  19.0818  19.0818  19.5175  19.5175  19.8620  19.8622

          k = 0.1250 0.2500 0.3750 (  3784 PWs)   bands (ev):

    -4.7984  -4.7984  -3.7764  -3.7764  -2.9018  -2.9018  -2.4795  -2.4795
    -0.6261  -0.6261  -0.1599  -0.1599   0.8742   0.8742   2.1019   2.1019
     2.2996   2.2996   2.4912   2.4912   3.2892   3.2892   3.6701   3.6701
     3.8932   3.8932   4.1394   4.1394   4.4717   4.4717   5.4120   5.4120
     8.0917   8.0917   8.1473   8.1473   8.8155   8.8155   8.8403   8.8403
     9.5293   9.5293  10.0399  10.0399  10.4129  10.4129  10.4342  10.4342
    10.9325  10.9325  11.0662  11.0662  11.4058  11.4058  11.6172  11.6172
    11.9404  11.9404  12.3175  12.3175  13.1822  13.1822  13.3871  13.3871
    13.4576  13.4576  13.9176  13.9176  14.8803  14.8803  15.0398  15.0398
    15.8326  15.8326  15.8515  15.8515  16.0165  16.0165  16.7122  16.7122
    17.0664  17.0664  17.6842  17.6842  18.2165  18.2165  18.5409  18.5410
    18.7094  18.7094  19.4735  19.4735  19.7582  19.7582  19.8924  19.8924

          k = 0.1250 0.2500-0.5000 (  3784 PWs)   bands (ev):

    -4.3455  -4.3455  -4.3455  -4.3455  -2.6718  -2.6718  -2.6717  -2.6717
    -0.4451  -0.4451  -0.4451  -0.4451   1.5802   1.5802   1.5802   1.5802
     2.2528   2.2528   2.2528   2.2528   3.7506   3.7506   3.7506   3.7506
     3.8806   3.8806   3.8806   3.8806   4.7461   4.7461   4.7461   4.7461
     8.5365   8.5365   8.5365   8.5365   9.1618   9.1618   9.1619   9.1619
    10.0908  10.0908  10.0908  10.0908  10.1808  10.1808  10.1808  10.1808
    10.7385  10.7385  10.7385  10.7385  11.3129  11.3129  11.3129  11.3129
    12.2663  12.2663  12.2663  12.2663  13.2445  13.2445  13.2445  13.2445
    13.4199  13.4199  13.4199  13.4199  14.5849  14.5849  14.5849  14.5850
    16.2380  16.2380  16.2380  16.2380  16.3058  16.3058  16.3058  16.3058
    16.6009  16.6009  16.6010  16.6010  18.9150  18.9150  18.9150  18.9150
    18.9573  18.9573  18.9573  18.9574  19.7404  19.7404  19.7405  19.7405

          k = 0.1250 0.3750 0.3750 (  3778 PWs)   bands (ev):

    -4.4822  -4.4822  -3.5149  -3.5149  -3.5149  -3.5149  -2.8104  -2.8104
    -0.4124  -0.4124   0.3874   0.3874   0.3874   0.3874   1.6037   1.6037
     2.2376   2.2376   2.9095   2.9095   2.9095   2.9095   3.9201   3.9201
     4.3023   4.3023   4.3023   4.3023   4.3450   4.3450   5.4587   5.4587
     8.0756   8.0756   8.9460   8.9460   9.1088   9.1088   9.1088   9.1088
     9.7860   9.7860   9.7860   9.7860   9.9062   9.9062  10.0901  10.0901
    11.2512  11.2512  11.2512  11.2512  11.6986  11.6986  11.7124  11.7124
    12.1695  12.1695  12.1695  12.1695  12.5285  12.5285  12.7163  12.7164
    13.1907  13.1907  14.2231  14.2231  14.2458  14.2458  15.2567  15.2568
    15.2568  15.2568  15.9633  15.9633  15.9633  15.9633  16.0806  16.0806
    16.3098  16.3098  18.2408  18.2408  18.2408  18.2408  18.6669  18.6669
    18.8195  18.8195  19.1666  19.1667  19.1667  19.1667  20.2193  20.2196

          k = 0.1250 0.3750-0.5000 (  3764 PWs)   bands (ev):

    -4.0499  -4.0499  -4.0499  -4.0499  -3.1788  -3.1788  -3.1787  -3.1787
    -0.0622  -0.0622  -0.0622  -0.0622   0.9664   0.9664   0.9664   0.9664
     2.5289   2.5289   2.5289   2.5289   3.3882   3.3882   3.3882   3.3882
     4.4354   4.4354   4.4354   4.4354   4.9972   4.9972   4.9972   4.9972
     8.7005   8.7005   8.7005   8.7005   9.1473   9.1473   9.1473   9.1473
     9.6029   9.6029   9.6030   9.6030  10.3403  10.3403  10.3403  10.3403
    10.9771  10.9771  10.9771  10.9771  11.8710  11.8710  11.8710  11.8710
    11.9272  11.9272  11.9272  11.9272  12.6812  12.6813  12.6813  12.6813
    13.8634  13.8634  13.8634  13.8634  14.5721  14.5721  14.5721  14.5721
    14.7215  14.7215  14.7216  14.7216  16.3225  16.3225  16.3225  16.3226
    17.6934  17.6934  17.6934  17.6934  18.3327  18.3327  18.3327  18.3327
    18.3983  18.3983  18.3983  18.3983  20.3598  20.3598  20.3599  20.3599

          k = 0.1250-0.5000-0.5000 (  3788 PWs)   bands (ev):

    -3.6531  -3.6531  -3.6530  -3.6530  -3.6530  -3.6530  -3.6530  -3.6530
     0.4099   0.4099   0.4099   0.4099   0.4099   0.4099   0.4099   0.4099
     2.9180   2.9180   2.9180   2.9180   2.9180   2.9180   2.9180   2.9180
     4.9219   4.9219   4.9219   4.9219   4.9219   4.9219   4.9219   4.9219
     8.6875   8.6875   8.6875   8.6875   8.6875   8.6875   8.6875   8.6875
    10.6513  10.6513  10.6513  10.6513  10.6513  10.6513  10.6513  10.6513
    10.6598  10.6598  10.6598  10.6598  10.6598  10.6598  10.6598  10.6598
    13.1599  13.1599  13.1599  13.1599  13.1599  13.1599  13.1599  13.1599
    13.2386  13.2386  13.2386  13.2386  13.2386  13.2386  13.2386  13.2386
    15.7425  15.7425  15.7425  15.7425  15.7425  15.7425  15.7425  15.7425
    17.9689  17.9689  17.9689  17.9689  17.9689  17.9689  17.9689  17.9689
    19.1843  19.1843  19.1843  19.1843  19.1843  19.1843  19.1843  19.1843

          k = 0.2500 0.2500 0.2500 (  3785 PWs)   bands (ev):

    -4.9327  -4.9327  -3.0146  -3.0146  -3.0146  -3.0146  -3.0146  -3.0146
    -0.1540  -0.1540  -0.1540  -0.1540  -0.1540  -0.1540   2.3024   2.3024
     2.6963   2.6963   2.6963   2.6963   2.6963   2.6963   4.0263   4.0263
     4.0263   4.0263   4.0263   4.0263   5.4573   5.4573   5.4885   5.4885
     7.7515   7.7515   7.7515   7.7515   7.7515   7.7515   8.2547   8.2547
     9.7249   9.7249   9.7463   9.7463  10.6831  10.6831  10.6831  10.6831
    10.6831  10.6831  11.9737  11.9737  11.9737  11.9737  11.9737  11.9737
    12.1520  12.1520  12.1520  12.1520  12.1520  12.1520  13.1428  13.1428
    13.4368  13.4368  13.4397  13.4397  15.2321  15.2321  16.4401  16.4401
    16.4401  16.4401  16.4401  16.4401  16.7777  16.7777  16.7777  16.7777
    16.7777  16.7777  18.0760  18.0760  18.3957  18.3957  18.3957  18.3957
    18.3957  18.3958  18.9407  18.9407  18.9407  18.9407  18.9407  18.9408

          k = 0.2500 0.2500 0.3750 (  3789 PWs)   bands (ev):

    -4.6132  -4.6132  -3.6344  -3.6344  -2.9108  -2.9108  -2.9108  -2.9108
    -0.4395  -0.4395  -0.4395  -0.4395   0.3743   0.3743   1.5857   1.5857
     2.7415   2.7415   2.7415   2.7415   3.5022   3.5022   4.0964   4.0964
     4.0964   4.0964   4.2925   4.2925   5.0541   5.0541   5.1853   5.1853
     8.1088   8.1088   8.3019   8.3019   8.3019   8.3019   8.4299   8.4299
     9.5175   9.5175  10.1538  10.1538  10.6094  10.6094  10.6094  10.6094
    10.8295  10.8295  11.1171  11.1171  11.3637  11.3637  12.0220  12.0220
    12.0220  12.0220  12.1468  12.1468  12.1469  12.1469  12.4823  12.4823
    14.3869  14.3869  14.4709  14.4709  15.0247  15.0247  15.0248  15.0248
    15.3766  15.3766  16.3626  16.3626  16.7551  16.7551  16.7551  16.7551
    16.8699  16.8699  17.5453  17.5453  18.1541  18.1541  18.1541  18.1541
    18.2553  18.2553  18.7457  18.7457  18.7457  18.7457  19.0101  19.0101

          k = 0.2500 0.2500-0.5000 (  3758 PWs)   bands (ev):

    -4.1760  -4.1760  -4.1760  -4.1760  -2.8626  -2.8626  -2.8626  -2.8626
    -0.5577  -0.5577  -0.5577  -0.5577   0.9443   0.9443   0.9443   0.9443
     2.7805   2.7805   2.7805   2.7805   4.0724   4.0724   4.0724   4.0724
     4.3964   4.3964   4.3964   4.3964   4.6455   4.6455   4.6455   4.6455
     8.4774   8.4774   8.4774   8.4774   9.2961   9.2961   9.2961   9.2961
     9.3670   9.3670   9.3670   9.3670   9.8706   9.8706   9.8706   9.8706
    10.6964  10.6964  10.6964  10.6964  11.7027  11.7027  11.7027  11.7027
    12.1431  12.1431  12.1431  12.1431  13.3544  13.3544  13.3544  13.3544
    13.6249  13.6249  13.6249  13.6249  15.5623  15.5623  15.5624  15.5624
    15.5888  15.5888  15.5888  15.5888  16.1853  16.1853  16.1853  16.1853
    16.8206  16.8206  16.8206  16.8206  17.9325  17.9325  17.9325  17.9325
    18.6422  18.6422  18.6422  18.6422  19.6324  19.6325  19.6326  19.6330

          k = 0.2500 0.3750 0.3750 (  3777 PWs)   bands (ev):

    -4.3114  -4.3114  -3.4217  -3.4217  -3.4216  -3.4216  -2.9959  -2.9959
    -0.5813  -0.5813  -0.1157  -0.1157  -0.1157  -0.1157   0.9128   0.9128
     3.0250   3.0250   3.5057   3.5057   3.5057   3.5057   4.4561   4.4561
     4.4561   4.4561   4.4729   4.4729   4.6948   4.6948   5.3394   5.3394
     8.2574   8.2574   8.3158   8.3158   8.5909   8.5909   8.5909   8.5909
     9.7057   9.7057   9.8430   9.8430   9.8430   9.8430   9.8664   9.8664
    10.6430  10.6430  10.9587  10.9587  11.1296  11.1296  11.1296  11.1296
    12.3915  12.3915  12.3915  12.3915  13.3470  13.3470  13.5770  13.5770
    13.6287  13.6287  15.1490  15.1490  15.1682  15.1682  15.4225  15.4225
    15.6415  15.6415  15.6415  15.6415  15.8611  15.8611  16.4035  16.4035
    16.4035  16.4035  17.5841  17.5841  17.5841  17.5841  17.7459  17.7459
    18.6557  18.6557  18.6557  18.6557  19.1954  19.1954  19.1954  19.1954

          k = 0.2500 0.3750-0.5000 (  3762 PWs)   bands (ev):

    -3.9057  -3.9057  -3.9057  -3.9057  -3.1843  -3.1843  -3.1843  -3.1843
    -0.4643  -0.4643  -0.4643  -0.4643   0.3388   0.3388   0.3388   0.3388
     3.3071   3.3071   3.3071   3.3071   4.1747   4.1747   4.1747   4.1747
     4.5655   4.5655   4.5655   4.5655   4.9646   4.9646   4.9646   4.9646
     8.6291   8.6291   8.6291   8.6291   8.7791   8.7791   8.7791   8.7791
     9.5014   9.5014   9.5014   9.5014   9.6159   9.6159   9.6159   9.6159
    10.3226  10.3226  10.3226  10.3226  10.9973  10.9973  10.9973  10.9973
    12.9077  12.9077  12.9077  12.9077  13.7957  13.7957  13.7957  13.7957
    14.6494  14.6494  14.6494  14.6494  14.8183  14.8183  14.8183  14.8183
    15.6235  15.6235  15.6235  15.6235  15.6841  15.6841  15.6841  15.6841
    17.2292  17.2292  17.2292  17.2292  17.4028  17.4028  17.4028  17.4028
    18.4782  18.4782  18.4782  18.4783  19.3094  19.3094  19.3095  19.3095

          k = 0.2500-0.5000-0.5000 (  3772 PWs)   bands (ev):

    -3.5592  -3.5592  -3.5591  -3.5591  -3.5591  -3.5591  -3.5591  -3.5591
    -0.1486  -0.1486  -0.1486  -0.1486  -0.1486  -0.1486  -0.1486  -0.1486
     3.7691   3.7691   3.7691   3.7691   3.7691   3.7691   3.7691   3.7691
     4.9664   4.9664   4.9664   4.9664   4.9664   4.9664   4.9664   4.9664
     8.5886   8.5886   8.5886   8.5886   8.5886   8.5886   8.5886   8.5886
     9.8562   9.8562   9.8562   9.8562   9.8562   9.8562   9.8562   9.8562
    10.1001  10.1001  10.1001  10.1001  10.1001  10.1001  10.1002  10.1002
    14.1463  14.1463  14.1463  14.1463  14.1463  14.1463  14.1463  14.1463
    14.3376  14.3376  14.3376  14.3376  14.3376  14.3376  14.3376  14.3376
    15.4483  15.4483  15.4483  15.4483  15.4483  15.4483  15.4483  15.4483
    17.4263  17.4263  17.4263  17.4263  17.4263  17.4263  17.4263  17.4263
    18.6809  18.6809  18.6809  18.6809  18.6809  18.6809  18.6809  18.6809

          k = 0.3750 0.3750 0.3750 (  3767 PWs)   bands (ev):

    -4.0391  -4.0391  -3.3146  -3.3146  -3.3146  -3.3146  -3.3146  -3.3146
    -0.5193  -0.5193  -0.5193  -0.5193  -0.5193  -0.5193   0.2819   0.2819
     3.9508   3.9508   3.9508   3.9508   3.9508   3.9508   4.6697   4.6697
     4.6697   4.6697   4.6697   4.6697   5.1295   5.1295   5.1611   5.1611
     7.8914   7.8914   8.4232   8.4232   8.4232   8.4232   8.4232   8.4232
     9.6743   9.6743   9.6905   9.6905   9.7463   9.7463   9.7463   9.7463
     9.7463   9.7463  10.3330  10.3330  10.3330  10.3330  10.3330  10.3330
    13.6027  13.6027  13.6027  13.6027  13.6027  13.6027  14.1165  14.1165
    14.8198  14.8198  14.8270  14.8270  15.2338  15.2338  15.2338  15.2338
    15.2338  15.2338  15.9185  15.9186  16.7243  16.7243  16.7243  16.7243
    16.7243  16.7243  17.7777  17.7777  17.7777  17.7777  17.7777  17.7777
    17.8896  17.8896  17.8896  17.8896  17.8896  17.8896  18.7609  18.7609

          k = 0.3750 0.3750-0.5000 (  3780 PWs)   bands (ev):

    -3.6902  -3.6902  -3.6902  -3.6902  -3.2649  -3.2649  -3.2649  -3.2649
    -0.6735  -0.6735  -0.6735  -0.6735  -0.2130  -0.2130  -0.2130  -0.2130
     4.0994   4.0994   4.0994   4.0994   4.7779   4.7779   4.7779   4.7779
     4.7909   4.7909   4.7909   4.7909   4.9089   4.9089   4.9089   4.9089
     8.1566   8.1566   8.1566   8.1566   8.5238   8.5238   8.5238   8.5238
     9.4055   9.4055   9.4055   9.4055   9.4881   9.4881   9.4881   9.4881
     9.8959   9.8959   9.8959   9.8959  10.1930  10.1930  10.1930  10.1930
    13.8954  13.8954  13.8954  13.8954  14.3505  14.3505  14.3505  14.3505
    14.9057  14.9057  14.9058  14.9058  15.1149  15.1149  15.1149  15.1149
    16.1091  16.1091  16.1091  16.1091  16.1789  16.1789  16.1789  16.1789
    16.9978  16.9978  16.9978  16.9978  17.6707  17.6707  17.6708  17.6708
    17.9496  17.9496  17.9497  17.9497  18.4288  18.4288  18.4288  18.4288

          k = 0.3750-0.5000-0.5000 (  3780 PWs)   bands (ev):

    -3.4513  -3.4513  -3.4513  -3.4513  -3.4513  -3.4513  -3.4513  -3.4513
    -0.5787  -0.5787  -0.5787  -0.5787  -0.5787  -0.5787  -0.5787  -0.5787
     4.6154   4.6154   4.6155   4.6155   4.6155   4.6155   4.6155   4.6155
     5.0136   5.0136   5.0136   5.0136   5.0136   5.0136   5.0136   5.0136
     8.1133   8.1133   8.1133   8.1133   8.1133   8.1133   8.1133   8.1133
     9.5785   9.5785   9.5785   9.5785   9.5785   9.5785   9.5785   9.5785
     9.7105   9.7105   9.7105   9.7105   9.7105   9.7105   9.7105   9.7105
    14.1639  14.1639  14.1639  14.1639  14.1639  14.1639  14.1639  14.1639
    15.6480  15.6480  15.6480  15.6480  15.6480  15.6480  15.6480  15.6480
    16.0386  16.0386  16.0386  16.0386  16.0386  16.0386  16.0386  16.0386
    17.4453  17.4453  17.4453  17.4453  17.4453  17.4453  17.4453  17.4453
    18.0825  18.0825  18.0825  18.0825  18.0825  18.0825  18.0826  18.0826

          k =-0.5000-0.5000-0.5000 (  3840 PWs)   bands (ev):

    -3.4013  -3.4013  -3.4012  -3.4012  -3.4012  -3.4012  -3.4012  -3.4012
    -0.7407  -0.7407  -0.7407  -0.7407  -0.7407  -0.7407  -0.7407  -0.7407
     5.0174   5.0174   5.0174   5.0174   5.0174   5.0174   5.0174   5.0174
     5.0491   5.0491   5.0491   5.0491   5.0491   5.0491   5.0491   5.0491
     7.7635   7.7635   7.7635   7.7635   7.7635   7.7635   7.7635   7.7635
     9.5647   9.5647   9.5647   9.5647   9.5647   9.5647   9.5647   9.5647
     9.5791   9.5791   9.5791   9.5791   9.5791   9.5791   9.5791   9.5791
    13.9636  13.9636  13.9636  13.9636  13.9636  13.9636  13.9636  13.9636
    16.7923  16.7923  16.7923  16.7923  16.7923  16.7923  16.7923  16.7924
    16.7926  16.7926  16.7926  16.7926  16.7926  16.7926  16.7926  16.7928
    17.5568  17.5569  17.5569  17.5569  17.5569  17.5569  17.5569  17.5591
    17.5873  17.5873  17.5873  17.5873  17.5873  17.5874  17.5874  17.5960

     the Fermi energy is     6.6799 ev

!    total energy              =     -67.69679260 Ry
     Harris-Foulkes estimate   =     -67.69679165 Ry
     estimated scf accuracy    <       0.00000058 Ry

     The total energy is the sum of the following terms:

     one-electron contribution =      19.85754875 Ry
     hartree contribution      =       4.37839105 Ry
     xc contribution           =     -24.73695776 Ry
     ewald contribution        =     -67.19577464 Ry

     convergence has been achieved in   4 iterations

     Writing output data file bulk_Si.save/

     init_run     :      1.53s CPU      1.81s WALL (       1 calls)
     electrons    :     42.66s CPU     45.29s WALL (       1 calls)

     Called by init_run:
     wfcinit      :      1.37s CPU      1.54s WALL (       1 calls)
     potinit      :      0.07s CPU      0.13s WALL (       1 calls)
     hinit0       :      0.06s CPU      0.10s WALL (       1 calls)

     Called by electrons:
     c_bands      :     38.11s CPU     40.59s WALL (       5 calls)
     sum_band     :      4.33s CPU      4.43s WALL (       5 calls)
     v_of_rho     :      0.15s CPU      0.15s WALL (       5 calls)
     mix_rho      :      0.05s CPU      0.05s WALL (       5 calls)

     Called by c_bands:
     init_us_2    :      0.40s CPU      0.43s WALL (     385 calls)
     cegterg      :     32.47s CPU     34.85s WALL (     175 calls)

     Called by sum_band:

     Called by *egterg:
     h_psi        :     12.55s CPU     13.10s WALL (     974 calls)
     g_psi        :      0.21s CPU      0.23s WALL (     764 calls)
     cdiaghg      :     12.94s CPU     13.29s WALL (     904 calls)

     Called by h_psi:
     h_psi:pot    :     12.39s CPU     12.90s WALL (     974 calls)
     h_psi:calbec :      1.23s CPU      1.29s WALL (     974 calls)
     vloc_psi     :      9.36s CPU      9.78s WALL (     974 calls)
     add_vuspsi   :      1.79s CPU      1.83s WALL (     974 calls)

     General routines
     calbec       :      1.23s CPU      1.29s WALL (     974 calls)
     fft          :      0.11s CPU      0.16s WALL (      95 calls)
     ffts         :      0.01s CPU      0.07s WALL (      40 calls)
     fftw         :      8.18s CPU      8.50s WALL (   56916 calls)
     interpolate  :      0.03s CPU      0.09s WALL (      20 calls)

     Parallel routines
     fft_scatt_xy :      1.69s CPU      1.75s WALL (   57051 calls)
     fft_scatt_yz :      2.02s CPU      2.15s WALL (   57051 calls)

     PWSCF        :     44.65s CPU     53.05s WALL


   This run was terminated on:  16: 1:47  18Apr2022            

=------------------------------------------------------------------------------=
   JOB DONE.
=------------------------------------------------------------------------------=
