     Message from routine get_command_line:
     unexpected argument # 2     :8.0

     Program PWSCF v.6.4.1 starts on 31Oct2020 at 21:30:21 

     This program is part of the open-source Quantum ESPRESSO suite
     for quantum simulation of materials; please cite
         "P. Giannozzi et al., J. Phys.:Condens. Matter 21 395502 (2009);
         "P. Giannozzi et al., J. Phys.:Condens. Matter 29 465901 (2017);
          URL http://www.quantum-espresso.org", 
     in publications or presentations arising from this work. More details at
     http://www.quantum-espresso.org/quote

     Parallel version (MPI), running on    32 processors

     MPI processes distributed on     1 nodes
     band groups division:  nbgrp     =       4
     R & G space division:  proc/nbgrp/npool/nimage =       8
     Waiting for input...
     Reading input from standard input

     Current dimensions of program PWSCF are:
     Max number of different atomic species (ntypx) = 10
     Max number of k-points (npk) =  40000
     Max angular momentum in pseudopotentials (lmaxx) =  3
     Message from routine input:
     WARNING: "startingwfc" set to atomic+random may spoil restart

     Atomic positions and unit cell read from directory:
     ./bulk_Si.save/


     Subspace diagonalization in iterative solution of the eigenvalue problem:
     one sub-group per band group will be used
     scalapack distributed-memory algorithm (size of sub-group:  2*  2 procs)

     Message from routine setup:
     no reason to have ecutrho>4*ecutwfc
     Found symmetry operation: I + (  0.0000 -0.5000 -0.5000)
     This is a supercell, fractional translations are disabled

     Parallelization info
     --------------------
     sticks:   dense  smooth     PW     G-vecs:    dense   smooth      PW
     Min         367     147     44                14937     3776     640
     Max         368     149     45                14940     3778     643
     Sum        2941    1185    357               119513    30215    5137


     Title: 
     Bulk Silicon                                                               


     bravais-lattice index     =            1
     lattice parameter (alat)  =      10.2612  a.u.
     unit-cell volume          =    1080.4287 (a.u.)^3
     number of atoms/cell      =            8
     number of atomic types    =            1
     number of electrons       =        32.00
     number of Kohn-Sham states=           48
     kinetic-energy cutoff     =      35.0000  Ry
     charge density cutoff     =     350.0000  Ry
     Exchange-correlation      =  SLA  PW   PBE  PBE ( 1  4  3  4 0 0)

     celldm(1)=  10.261213  celldm(2)=   0.000000  celldm(3)=   0.000000
     celldm(4)=   0.000000  celldm(5)=   0.000000  celldm(6)=   0.000000

     crystal axes: (cart. coord. in units of alat)
               a(1) = (   1.000000   0.000000   0.000000 )  
               a(2) = (   0.000000   1.000000   0.000000 )  
               a(3) = (   0.000000   0.000000   1.000000 )  

     reciprocal axes: (cart. coord. in units 2 pi/alat)
               b(1) = (  1.000000  0.000000  0.000000 )  
               b(2) = (  0.000000  1.000000  0.000000 )  
               b(3) = (  0.000000  0.000000  1.000000 )  


     PseudoPot. # 1 for Si read from file:
     input/Si.pbe-rrkj.UPF
     MD5 check sum: cf7ab5690cd9a85b22c4813f7e365554
     Pseudo is Norm-conserving, Zval =  4.0
     Generated by new atomic code, or converted to UPF format
     Using radial grid of  883 points,  3 beta functions with: 
                l(1) =   0
                l(2) =   0
                l(3) =   1

     atomic species   valence    mass     pseudopotential
        Si             4.00    28.05900     Si( 1.00)

     24 Sym. Ops. (no inversion) found



   Cartesian axes

     site n.     atom                  positions (alat units)
         1           Si  tau(   1) = (   0.0000000   0.0000000   0.0000000  )
         2           Si  tau(   2) = (   0.0000000   0.5000000   0.5000000  )
         3           Si  tau(   3) = (   0.5000000   0.5000000   0.0000000  )
         4           Si  tau(   4) = (   0.5000000   0.0000000   0.5000000  )
         5           Si  tau(   5) = (   0.7500000   0.2500000   0.7500000  )
         6           Si  tau(   6) = (   0.2500000   0.2500000   0.2500000  )
         7           Si  tau(   7) = (   0.2500000   0.7500000   0.7500000  )
         8           Si  tau(   8) = (   0.7500000   0.7500000   0.2500000  )

     number of k points=    84  gaussian smearing, width (Ry)=  0.0050
                       cart. coord. in units 2pi/alat
        k(    1) = (   0.0000000   0.0000000   0.0000000), wk =   0.0238095
        k(    2) = (   0.0000000   0.0384615   0.0000000), wk =   0.0238095
        k(    3) = (   0.0000000   0.0769231   0.0000000), wk =   0.0238095
        k(    4) = (   0.0000000   0.1153846   0.0000000), wk =   0.0238095
        k(    5) = (   0.0000000   0.1538462   0.0000000), wk =   0.0238095
        k(    6) = (   0.0000000   0.1923077   0.0000000), wk =   0.0238095
        k(    7) = (   0.0000000   0.2307692   0.0000000), wk =   0.0238095
        k(    8) = (   0.0000000   0.2692308   0.0000000), wk =   0.0238095
        k(    9) = (   0.0000000   0.3076923   0.0000000), wk =   0.0238095
        k(   10) = (   0.0000000   0.3461539   0.0000000), wk =   0.0238095
        k(   11) = (   0.0000000   0.3846154   0.0000000), wk =   0.0238095
        k(   12) = (   0.0000000   0.4230769   0.0000000), wk =   0.0238095
        k(   13) = (   0.0000000   0.4615385   0.0000000), wk =   0.0238095
        k(   14) = (   0.0000000   0.5000000   0.0000000), wk =   0.0238095
        k(   15) = (   0.0000000   0.5384615   0.0000000), wk =   0.0238095
        k(   16) = (   0.0000000   0.5769231   0.0000000), wk =   0.0238095
        k(   17) = (   0.0000000   0.6153846   0.0000000), wk =   0.0238095
        k(   18) = (   0.0000000   0.6538462   0.0000000), wk =   0.0238095
        k(   19) = (   0.0000000   0.6923077   0.0000000), wk =   0.0238095
        k(   20) = (   0.0000000   0.7307692   0.0000000), wk =   0.0238095
        k(   21) = (   0.0000000   0.7692308   0.0000000), wk =   0.0238095
        k(   22) = (   0.0000000   0.8076923   0.0000000), wk =   0.0238095
        k(   23) = (   0.0000000   0.8461539   0.0000000), wk =   0.0238095
        k(   24) = (   0.0000000   0.8846154   0.0000000), wk =   0.0238095
        k(   25) = (   0.0000000   0.9230769   0.0000000), wk =   0.0238095
        k(   26) = (   0.0000000   0.9615385   0.0000000), wk =   0.0238095
        k(   27) = (   0.0227273   0.0227273   0.0227273), wk =   0.0238095
        k(   28) = (   0.0267857   0.0267857   0.0000000), wk =   0.0238095
        k(   29) = (   0.0312500   0.0000000   0.0312500), wk =   0.0238095
        k(   30) = (   0.0454546   0.0454546   0.0454546), wk =   0.0238095
        k(   31) = (   0.0535714   0.0535714   0.0000000), wk =   0.0238095
        k(   32) = (   0.0625000   0.0000000   0.0625000), wk =   0.0238095
        k(   33) = (   0.0681818   0.0681818   0.0681818), wk =   0.0238095
        k(   34) = (   0.0803571   0.0803571   0.0000000), wk =   0.0238095
        k(   35) = (   0.0909091   0.0909091   0.0909091), wk =   0.0238095
        k(   36) = (   0.0937500   0.0000000   0.0937500), wk =   0.0238095
        k(   37) = (   0.1071429   0.1071429   0.0000000), wk =   0.0238095
        k(   38) = (   0.1136364   0.1136364   0.1136364), wk =   0.0238095
        k(   39) = (   0.1250000   0.0000000   0.1250000), wk =   0.0238095
        k(   40) = (   0.1339286   0.1339286   0.0000000), wk =   0.0238095
        k(   41) = (   0.1363636   0.1363636   0.1363636), wk =   0.0238095
        k(   42) = (   0.1562500   0.0000000   0.1562500), wk =   0.0238095
        k(   43) = (   0.1590909   0.1590909   0.1590909), wk =   0.0238095
        k(   44) = (   0.1607143   0.1607143   0.0000000), wk =   0.0238095
        k(   45) = (   0.1818182   0.1818182   0.1818182), wk =   0.0238095
        k(   46) = (   0.1875000   0.0000000   0.1875000), wk =   0.0238095
        k(   47) = (   0.1875000   0.1875000   0.0000000), wk =   0.0238095
        k(   48) = (   0.2045455   0.2045455   0.2045455), wk =   0.0238095
        k(   49) = (   0.2142857   0.2142857   0.0000000), wk =   0.0238095
        k(   50) = (   0.2187500   0.0000000   0.2187500), wk =   0.0238095
        k(   51) = (   0.2272727   0.2272727   0.2272727), wk =   0.0238095
        k(   52) = (   0.2410714   0.2410714   0.0000000), wk =   0.0238095
        k(   53) = (   0.2500000   0.0000000   0.2500000), wk =   0.0238095
        k(   54) = (   0.2500000   0.2500000   0.2500000), wk =   0.0238095
        k(   55) = (   0.2678571   0.2678571   0.0000000), wk =   0.0238095
        k(   56) = (   0.2727273   0.2727273   0.2727273), wk =   0.0238095
        k(   57) = (   0.2946429   0.2946429   0.0000000), wk =   0.0238095
        k(   58) = (   0.2954546   0.2954546   0.2954546), wk =   0.0238095
        k(   59) = (   0.3181818   0.3181818   0.3181818), wk =   0.0238095
        k(   60) = (   0.3214286   0.3214286   0.0000000), wk =   0.0238095
        k(   61) = (   0.3409091   0.3409091   0.3409091), wk =   0.0238095
        k(   62) = (   0.3482143   0.3482143   0.0000000), wk =   0.0238095
        k(   63) = (   0.3636364   0.3636364   0.3636364), wk =   0.0238095
        k(   64) = (   0.3750000   0.3750000   0.0000000), wk =   0.0238095
        k(   65) = (   0.3863636   0.3863636   0.3863636), wk =   0.0238095
        k(   66) = (   0.4017857   0.4017857   0.0000000), wk =   0.0238095
        k(   67) = (   0.4090909   0.4090909   0.4090909), wk =   0.0238095
        k(   68) = (   0.4285714   0.4285714   0.0000000), wk =   0.0238095
        k(   69) = (   0.4318182   0.4318182   0.4318182), wk =   0.0238095
        k(   70) = (   0.4545455   0.4545455   0.4545455), wk =   0.0238095
        k(   71) = (   0.4553571   0.4553571   0.0000000), wk =   0.0238095
        k(   72) = (   0.4772727   0.4772727   0.4772727), wk =   0.0238095
        k(   73) = (   0.4821429   0.4821429   0.0000000), wk =   0.0238095
        k(   74) = (   0.5000000   0.5000000   0.5000000), wk =   0.0238095
        k(   75) = (   0.5089286   0.5089286   0.0000000), wk =   0.0238095
        k(   76) = (   0.5357143   0.5357143   0.0000000), wk =   0.0238095
        k(   77) = (   0.5625000   0.5625000   0.0000000), wk =   0.0238095
        k(   78) = (   0.5892857   0.5892857   0.0000000), wk =   0.0238095
        k(   79) = (   0.6160714   0.6160714   0.0000000), wk =   0.0238095
        k(   80) = (   0.6428571   0.6428571   0.0000000), wk =   0.0238095
        k(   81) = (   0.6696429   0.6696429   0.0000000), wk =   0.0238095
        k(   82) = (   0.6964286   0.6964286   0.0000000), wk =   0.0238095
        k(   83) = (   0.7232143   0.7232143   0.0000000), wk =   0.0238095
        k(   84) = (   0.7500000   0.7500000   0.0000000), wk =   0.0238095

     Dense  grid:   119513 G-vectors     FFT dimensions: (  64,  64,  64)

     Smooth grid:    30215 G-vectors     FFT dimensions: (  40,  40,  40)

     Estimated max dynamical RAM per process >       8.52 MB

     Estimated total dynamical RAM >     272.70 MB

     The potential is recalculated from file :
     ./bulk_Si.save/charge-density

     Starting wfcs are   32 randomized atomic wfcs +   16 random wfcs

     Band Structure Calculation
     Davidson diagonalization with overlap

     ethr =  3.12E-09,  avg # of iterations = 30.5

     total cpu time spent up to now is       58.5 secs

     End of band structure calculation

          k = 0.0000 0.0000 0.0000 (  3791 PWs)   bands (ev):

    -5.6729  -1.5307  -1.5306  -1.5306  -1.5306  -1.5306  -1.5306   3.3853
     3.3853   3.3853   3.3853   3.3853   3.3853   6.2305   6.2305   6.2305
     6.9667   6.9667   6.9667   6.9667   6.9667   6.9667   8.8047   8.8047
     8.8047   9.7026  13.9600  13.9600  14.2418  16.3579  16.3579  16.3579
    16.3579  16.3579  16.3579  17.2104  17.2104  17.2104  17.2105  17.2105
    17.2105  17.5070  17.5070  17.5070  18.7821  18.7821  18.7821  18.7821

          k = 0.0000 0.0385 0.0000 (  3783 PWs)   bands (ev):

    -5.6664  -1.8241  -1.5285  -1.5284  -1.5284  -1.5284  -1.2295   3.3657
     3.3657   3.3657   3.3657   3.3911   3.3911   6.1876   6.2027   6.2027
     6.9070   7.0025   7.0025   7.0025   7.0025   7.0438   8.7888   8.8406
     8.8406   9.7446  13.9068  13.9672  14.2705  16.2068  16.2068  16.2980
    16.2980  16.2980  16.2980  17.1295  17.1296  17.1296  17.1296  17.3638
    17.3638  17.5182  17.5182  17.5446  18.4213  18.8487  18.8487  18.8487

          k = 0.0000 0.0769 0.0000 (  3799 PWs)   bands (ev):

    -5.6470  -2.1093  -1.5220  -1.5219  -1.5219  -1.5219  -0.9212   3.3096
     3.3097   3.3097   3.3097   3.4087   3.4087   6.0651   6.1235   6.1235
     6.8644   7.1072   7.1073   7.1073   7.1073   7.1388   8.7422   8.9437
     8.9437   9.8632  13.7577  13.9888  14.3554  15.8987  15.8987  16.0963
    16.0963  16.0963  16.0963  16.9875  16.9876  16.9876  16.9876  17.5520
    17.5520  17.6489  17.6780  17.6780  18.0740  18.6830  18.9465  18.9465

          k = 0.0000 0.1154 0.0000 (  3807 PWs)   bands (ev):

    -5.6146  -2.3859  -1.5114  -1.5114  -1.5114  -1.5113  -0.6064   3.2242
     3.2242   3.2242   3.2242   3.4378   3.4378   5.8776   6.0039   6.0039
     6.8385   7.2519   7.2741   7.2741   7.2741   7.2741   8.6680   9.1030
     9.1030  10.0401  13.5395  14.0247  14.4933  15.5490  15.5490  15.7505
    15.7505  15.7505  15.7506  16.8939  16.8940  16.8940  16.8940  17.6083
    17.6083  17.7405  17.8002  18.0356  18.0356  18.3328  19.0069  19.0069

          k = 0.0000 0.1538 0.0000 (  3799 PWs)   bands (ev):

    -5.5694  -2.6533  -1.4974  -1.4973  -1.4973  -1.4972  -0.2856   3.1185
     3.1185   3.1185   3.1185   3.4786   3.4786   5.6418   5.8562   5.8562
     6.8288   7.3835   7.4942   7.4942   7.4942   7.4942   8.5707   9.3063
     9.3063  10.2502  13.2854  14.0750  14.6795  15.1877  15.1877  15.3154
    15.3154  15.3154  15.3154  16.8484  16.8484  16.8484  16.8485  17.4208
    17.6869  17.6869  17.9665  17.9786  18.4030  18.4030  19.0488  19.0488

          k = 0.0000 0.1923 0.0000 (  3807 PWs)   bands (ev):

    -5.5112  -2.9112  -1.4804  -1.4803  -1.4803  -1.4803   0.0405   3.0017
     3.0017   3.0017   3.0017   3.5309   3.5309   5.3719   5.6910   5.6910
     6.8348   7.5339   7.7587   7.7587   7.7587   7.7587   8.4554   9.5426
     9.5426  10.4635  13.0325  14.1397  14.8235  14.8235  14.8382  14.8382
    14.8382  14.8382  14.9086  16.8273  16.8274  16.8274  16.8274  17.1149
    17.5870  17.7876  17.7876  18.1705  18.7647  18.7647  19.0858  19.0859

          k = 0.0000 0.2308 0.0000 (  3803 PWs)   bands (ev):

    -5.4403  -3.1591  -1.4614  -1.4613  -1.4613  -1.4613   0.3712   2.8819
     2.8819   2.8819   2.8819   3.5946   3.5946   5.0783   5.5163   5.5163
     6.8561   7.7031   8.0600   8.0600   8.0600   8.0600   8.3271   9.8038
     9.8038  10.6394  12.8267  14.2187  14.3431  14.3431  14.3431  14.3431
    14.4597  14.4597  15.1753  16.8180  16.8180  16.8180  16.8181  16.8230
    17.1969  17.9102  17.9102  18.3691  19.1060  19.1060  19.1224  19.1224

          k = 0.0000 0.2692 0.0000 (  3787 PWs)   bands (ev):

    -5.3566  -3.3968  -1.4414  -1.4413  -1.4413  -1.4413   0.7059   2.7658
     2.7659   2.7659   2.7659   3.6696   3.6696   4.7684   5.3377   5.3377
     6.8922   7.8913   8.1906   8.3917   8.3917   8.3917   8.3917  10.0841
    10.0841  10.7243  12.7253  13.8421  13.8421  13.8421  13.8421  14.0979
    14.0979  14.3120  15.4744  16.5449  16.7981  16.8145  16.8145  16.8145
    16.8146  18.0542  18.0542  18.5726  19.1591  19.1591  19.1591  19.1591

          k = 0.0000 0.3077 0.0000 (  3787 PWs)   bands (ev):

    -5.2602  -3.6239  -1.4215  -1.4214  -1.4214  -1.4214   1.0438   2.6590
     2.6590   2.6590   2.6591   3.7558   3.7558   4.4470   5.1593   5.1593
     6.9426   8.0498   8.0982   8.7486   8.7486   8.7486   8.7486  10.3792
    10.3792  10.6762  12.7728  13.3422  13.3422  13.3422  13.3422  13.7387
    13.7387  14.4197  15.8010  16.2810  16.3926  16.8140  16.8141  16.8141
    16.8141  18.2186  18.2186  18.7816  19.1950  19.1951  19.1951  19.1951

          k = 0.0000 0.3462 0.0000 (  3788 PWs)   bands (ev):

    -5.1512  -3.8401  -1.4029  -1.4028  -1.4028  -1.4028   1.3844   2.5658
     2.5658   2.5658   2.5658   3.8530   3.8530   4.1177   4.9840   4.9840
     7.0065   7.9083   8.3236   9.1260   9.1260   9.1260   9.1260  10.5063
    10.6861  10.6861  12.8483  12.8483  12.8483  12.8483  12.9601  13.3825
    13.3825  14.5417  15.9824  16.0310  16.1509  16.8151  16.8151  16.8151
    16.8152  18.4024  18.4024  18.9983  19.2287  19.2287  19.2287  19.2288

          k = 0.0000 0.3846 0.0000 (  3784 PWs)   bands (ev):

    -5.0296  -4.0452  -1.3869  -1.3868  -1.3868  -1.3868   1.7269   2.4897
     2.4897   2.4897   2.4897   3.7827   3.9610   3.9610   4.8137   4.8137
     7.0835   7.7688   8.5669   9.5187   9.5187   9.5187   9.5187  10.2606
    11.0024  11.0024  12.3654  12.3654  12.3654  12.3654  13.0296  13.0296
    13.2423  14.6780  15.5696  15.7952  16.5200  16.8167  16.8167  16.8167
    16.8168  18.6036  18.6036  18.8849  19.2251  19.2580  19.2580  19.2581

          k = 0.0000 0.4231 0.0000 (  3780 PWs)   bands (ev):

    -4.8957  -4.2389  -1.3745  -1.3744  -1.3744  -1.3744   2.0706   2.4334
     2.4334   2.4334   2.4334   3.4438   4.0794   4.0794   4.6499   4.6499
     7.1728   7.6339   8.8268   9.9178   9.9178   9.9178   9.9178   9.9785
    11.3266  11.3266  11.9021  11.9022  11.9022  11.9022  12.6802  12.6802
    13.5808  14.8286  15.1568  15.5735  16.8182  16.8182  16.8182  16.8183
    16.9043  18.5021  18.8189  18.8189  19.2809  19.2809  19.2809  19.2809

          k = 0.0000 0.4615 0.0000 (  3784 PWs)   bands (ev):

    -4.7495  -4.4209  -1.3667  -1.3666  -1.3666  -1.3665   2.3988   2.3988
     2.3988   2.3988   2.4148   3.1023   4.2080   4.2080   4.4939   4.4939
     7.2735   7.5053   9.1017   9.6835  10.2959  10.2959  10.2959  10.2959
    11.4857  11.4857  11.4857  11.4857  11.6573  11.6573  12.3348  12.3348
    13.9523  14.7469  14.9935  15.3659  16.8192  16.8193  16.8193  16.8193
    17.2997  18.1048  19.0435  19.0435  19.2954  19.2955  19.2955  19.2955

          k = 0.0000 0.5000 0.0000 (  3804 PWs)   bands (ev):

    -4.5913  -4.5912  -1.3640  -1.3639  -1.3639  -1.3639   2.3871   2.3871
     2.3871   2.3871   2.7590   2.7590   4.3463   4.3463   4.3464   4.3464
     7.3847   7.3848   9.3888   9.3888  10.5064  10.5065  10.5065  10.5065
    11.2623  11.2623  11.2623  11.2623  11.9936  11.9936  11.9936  11.9936
    14.3436  14.3437  15.1726  15.1726  16.8196  16.8197  16.8197  16.8197
    17.7017  17.7017  19.2689  19.2689  19.2690  19.2690  19.3005  19.3005

          k = 0.0000 0.5385 0.0000 (  3784 PWs)   bands (ev):

    -4.7495  -4.4209  -1.3667  -1.3666  -1.3666  -1.3665   2.3988   2.3988
     2.3988   2.3988   2.4148   3.1023   4.2080   4.2080   4.4939   4.4939
     7.2735   7.5053   9.1017   9.6835  10.2959  10.2959  10.2959  10.2959
    11.4857  11.4857  11.4857  11.4857  11.6573  11.6573  12.3348  12.3348
    13.9523  14.7469  14.9935  15.3659  16.8192  16.8193  16.8193  16.8193
    17.2997  18.1048  19.0435  19.0435  19.2954  19.2955  19.2955  19.2955

          k = 0.0000 0.5769 0.0000 (  3780 PWs)   bands (ev):

    -4.8957  -4.2389  -1.3745  -1.3744  -1.3744  -1.3744   2.0706   2.4334
     2.4334   2.4334   2.4334   3.4438   4.0794   4.0794   4.6499   4.6499
     7.1728   7.6339   8.8268   9.9178   9.9178   9.9178   9.9178   9.9785
    11.3266  11.3266  11.9021  11.9022  11.9022  11.9022  12.6802  12.6802
    13.5808  14.8286  15.1568  15.5735  16.8182  16.8182  16.8182  16.8183
    16.9043  18.5021  18.8189  18.8189  19.2809  19.2809  19.2809  19.2809

          k = 0.0000 0.6154 0.0000 (  3784 PWs)   bands (ev):

    -5.0296  -4.0452  -1.3869  -1.3868  -1.3868  -1.3868   1.7269   2.4897
     2.4897   2.4897   2.4897   3.7827   3.9610   3.9610   4.8137   4.8137
     7.0835   7.7688   8.5669   9.5187   9.5187   9.5187   9.5187  10.2606
    11.0024  11.0024  12.3654  12.3654  12.3654  12.3654  13.0296  13.0296
    13.2423  14.6780  15.5696  15.7952  16.5200  16.8167  16.8167  16.8167
    16.8168  18.6036  18.6036  18.8849  19.2251  19.2580  19.2580  19.2580

          k = 0.0000 0.6538 0.0000 (  3788 PWs)   bands (ev):

    -5.1512  -3.8401  -1.4029  -1.4028  -1.4028  -1.4028   1.3844   2.5658
     2.5658   2.5658   2.5658   3.8530   3.8530   4.1177   4.9840   4.9840
     7.0065   7.9083   8.3236   9.1260   9.1260   9.1260   9.1260  10.5063
    10.6861  10.6861  12.8483  12.8483  12.8483  12.8483  12.9601  13.3825
    13.3825  14.5417  15.9824  16.0310  16.1509  16.8151  16.8151  16.8151
    16.8152  18.4024  18.4024  18.9983  19.2287  19.2287  19.2287  19.2288

          k = 0.0000 0.6923 0.0000 (  3787 PWs)   bands (ev):

    -5.2602  -3.6239  -1.4215  -1.4214  -1.4214  -1.4214   1.0438   2.6590
     2.6590   2.6590   2.6591   3.7558   3.7558   4.4470   5.1593   5.1593
     6.9426   8.0498   8.0982   8.7486   8.7486   8.7486   8.7486  10.3792
    10.3792  10.6762  12.7728  13.3422  13.3422  13.3422  13.3422  13.7387
    13.7387  14.4197  15.8010  16.2810  16.3926  16.8140  16.8141  16.8141
    16.8141  18.2186  18.2186  18.7816  19.1950  19.1951  19.1951  19.1951

          k = 0.0000 0.7308 0.0000 (  3787 PWs)   bands (ev):

    -5.3566  -3.3968  -1.4414  -1.4413  -1.4413  -1.4413   0.7059   2.7658
     2.7659   2.7659   2.7659   3.6696   3.6696   4.7684   5.3377   5.3377
     6.8922   7.8913   8.1906   8.3917   8.3917   8.3917   8.3917  10.0841
    10.0841  10.7243  12.7253  13.8421  13.8421  13.8421  13.8421  14.0979
    14.0979  14.3120  15.4744  16.5449  16.7981  16.8145  16.8145  16.8145
    16.8146  18.0542  18.0542  18.5726  19.1591  19.1591  19.1591  19.1591

          k = 0.0000 0.7692 0.0000 (  3803 PWs)   bands (ev):

    -5.4403  -3.1591  -1.4614  -1.4613  -1.4613  -1.4613   0.3712   2.8819
     2.8819   2.8819   2.8819   3.5946   3.5946   5.0783   5.5163   5.5163
     6.8561   7.7031   8.0600   8.0600   8.0600   8.0600   8.3271   9.8038
     9.8038  10.6394  12.8267  14.2187  14.3431  14.3431  14.3431  14.3431
    14.4597  14.4597  15.1753  16.8180  16.8180  16.8180  16.8181  16.8230
    17.1969  17.9102  17.9102  18.3691  19.1060  19.1060  19.1224  19.1224

          k = 0.0000 0.8077 0.0000 (  3807 PWs)   bands (ev):

    -5.5112  -2.9112  -1.4804  -1.4803  -1.4803  -1.4803   0.0405   3.0017
     3.0017   3.0017   3.0017   3.5309   3.5309   5.3719   5.6910   5.6910
     6.8348   7.5339   7.7587   7.7587   7.7587   7.7587   8.4554   9.5426
     9.5426  10.4635  13.0325  14.1397  14.8235  14.8235  14.8382  14.8382
    14.8382  14.8382  14.9086  16.8273  16.8274  16.8274  16.8274  17.1149
    17.5870  17.7876  17.7876  18.1705  18.7647  18.7647  19.0858  19.0859

          k = 0.0000 0.8462 0.0000 (  3799 PWs)   bands (ev):

    -5.5694  -2.6533  -1.4974  -1.4973  -1.4973  -1.4972  -0.2856   3.1185
     3.1185   3.1185   3.1185   3.4786   3.4786   5.6418   5.8562   5.8562
     6.8288   7.3835   7.4942   7.4942   7.4942   7.4942   8.5707   9.3063
     9.3063  10.2502  13.2854  14.0750  14.6795  15.1877  15.1877  15.3154
    15.3154  15.3154  15.3154  16.8484  16.8484  16.8484  16.8485  17.4208
    17.6869  17.6869  17.9665  17.9786  18.4030  18.4030  19.0488  19.0488

          k = 0.0000 0.8846 0.0000 (  3807 PWs)   bands (ev):

    -5.6146  -2.3859  -1.5114  -1.5114  -1.5114  -1.5113  -0.6064   3.2242
     3.2242   3.2242   3.2242   3.4378   3.4378   5.8776   6.0039   6.0039
     6.8385   7.2519   7.2741   7.2741   7.2741   7.2741   8.6680   9.1030
     9.1030  10.0401  13.5395  14.0247  14.4933  15.5490  15.5490  15.7505
    15.7505  15.7505  15.7506  16.8939  16.8940  16.8940  16.8940  17.6083
    17.6083  17.7405  17.8002  18.0356  18.0356  18.3328  19.0069  19.0069

          k = 0.0000 0.9231 0.0000 (  3799 PWs)   bands (ev):

    -5.6470  -2.1093  -1.5220  -1.5219  -1.5219  -1.5219  -0.9212   3.3096
     3.3097   3.3097   3.3097   3.4087   3.4087   6.0651   6.1235   6.1235
     6.8644   7.1072   7.1073   7.1073   7.1073   7.1388   8.7422   8.9437
     8.9437   9.8632  13.7577  13.9888  14.3554  15.8987  15.8987  16.0963
    16.0963  16.0963  16.0963  16.9875  16.9876  16.9876  16.9876  17.5520
    17.5520  17.6489  17.6780  17.6780  18.0740  18.6830  18.9465  18.9465

          k = 0.0000 0.9615 0.0000 (  3783 PWs)   bands (ev):

    -5.6664  -1.8241  -1.5285  -1.5284  -1.5284  -1.5284  -1.2295   3.3657
     3.3657   3.3657   3.3657   3.3911   3.3911   6.1876   6.2027   6.2027
     6.9070   7.0025   7.0025   7.0025   7.0025   7.0438   8.7888   8.8406
     8.8406   9.7446  13.9068  13.9672  14.2705  16.2068  16.2068  16.2980
    16.2980  16.2980  16.2980  17.1295  17.1296  17.1296  17.1296  17.3638
    17.3638  17.5182  17.5182  17.5446  18.4213  18.8487  18.8487  18.8487

          k = 0.0227 0.0227 0.0227 (  3785 PWs)   bands (ev):

    -5.6661  -1.7033  -1.7032  -1.7032  -1.3523  -1.3523  -1.3523   3.3565
     3.3565   3.3565   3.3909   3.3909   3.3910   6.1515   6.2188   6.2188
     6.9495   6.9495   6.9496   7.0398   7.0398   7.0398   8.8219   8.8219
     8.8264   9.7482  13.9358  13.9358  14.2718  16.2485  16.2485  16.2485
    16.2706  16.2707  16.2707  17.2017  17.2017  17.2017  17.2127  17.2127
    17.2127  17.4783  17.5531  17.5531  18.6210  18.6210  18.6210  19.0583

          k = 0.0268 0.0268 0.0000 (  3783 PWs)   bands (ev):

    -5.6666  -1.7346  -1.7345  -1.5331  -1.5239  -1.3209  -1.3208   3.3427
     3.3781   3.3781   3.3790   3.3791   3.3903   6.1653   6.2033   6.2278
     6.9410   6.9410   6.9725   7.0299   7.0357   7.0357   8.8112   8.8178
     8.8378   9.7444  13.9230  13.9522  14.2696  16.2324  16.2324  16.2681
    16.2681  16.2870  16.3207  17.1151  17.1328  17.2292  17.2293  17.2677
    17.2677  17.4963  17.5179  17.5654  18.5641  18.5641  18.8575  18.8586

          k = 0.0313 0.0000 0.0313 (  3787 PWs)   bands (ev):

    -5.6643  -1.7679  -1.7679  -1.5341  -1.5214  -1.2854  -1.2854   3.3277
     3.3754   3.3755   3.3769   3.3770   3.3922   6.1425   6.1936   6.2268
     6.9410   6.9410   6.9746   7.0512   7.0513   7.0524   8.8135   8.8225
     8.8487   9.7597  13.9100  13.9494  14.2796  16.1876  16.1876  16.2409
    16.2409  16.2625  16.3075  17.0828  17.1065  17.2316  17.2316  17.2892
    17.2893  17.4926  17.5219  17.5862  18.5334  18.5334  18.8837  18.8845

          k = 0.0455 0.0455 0.0455 (  3803 PWs)   bands (ev):

    -5.6457  -1.8689  -1.8688  -1.8688  -1.1700  -1.1699  -1.1699   3.2756
     3.2757   3.2757   3.4079   3.4079   3.4080   5.9356   6.1848   6.1848
     6.9638   6.9638   6.9638   7.1884   7.1884   7.1884   8.8641   8.8719
     8.8719   9.8917  13.8679  13.8679  14.3604  15.9681  15.9681  15.9681
    16.0313  16.0313  16.0313  17.1777  17.1778  17.1778  17.2052  17.2052
    17.2052  17.3975  17.6870  17.6870  18.5506  18.5506  18.5506  19.1324

          k = 0.0536 0.0536 0.0000 (  3799 PWs)   bands (ev):

    -5.6478  -1.9314  -1.9313  -1.5410  -1.5036  -1.1069  -1.1068   3.2242
     3.3556   3.3557   3.3630   3.3630   3.4054   5.9861   6.1238   6.2195
     6.9593   6.9593   6.9899   7.1458   7.1458   7.2106   8.8305   8.8558
     8.9159   9.8734  13.8195  13.9296  14.3518  15.8878  15.8879  16.0793
    16.0793  16.0966  16.2146  16.8717  16.9342  17.2241  17.2241  17.4339
    17.4339  17.4674  17.5510  17.7332  18.3878  18.3878  19.0439  19.0439

          k = 0.0625 0.0000 0.0625 (  3795 PWs)   bands (ev):

    -5.6387  -1.9952  -1.9951  -1.5450  -1.4938  -1.0350  -1.0349   3.1716
     3.3447   3.3447   3.3563   3.3563   3.4127   5.9070   6.0867   6.2155
     6.9750   6.9751   6.9983   7.1911   7.1911   7.2933   8.8399   8.8734
     8.9450   9.9364  13.7733  13.9193  14.3908  15.7421  15.7422  16.0071
    16.0071  16.0140  16.1661  16.7703  16.8512  17.2115  17.2115  17.4550
    17.5030  17.5030  17.5671  17.8105  18.3296  18.3296  19.0265  19.0265

          k = 0.0682 0.0682 0.0682 (  3803 PWs)   bands (ev):

    -5.6119  -2.0265  -2.0264  -2.0264  -0.9861  -0.9861  -0.9861   3.1566
     3.1566   3.1566   3.4361   3.4361   3.4362   5.6256   6.1316   6.1316
     6.9978   6.9978   6.9978   7.4115   7.4115   7.4115   8.8769   8.9504
     8.9504  10.1335  13.7684  13.7684  14.5027  15.5926  15.5926  15.5926
    15.6865  15.6866  15.6866  17.1420  17.1420  17.1420  17.1772  17.1772
    17.1772  17.2784  17.8974  17.8974  18.5341  18.5341  18.5341  19.1156

          k = 0.0804 0.0804 0.0000 (  3799 PWs)   bands (ev):

    -5.6164  -2.1199  -2.1199  -1.5553  -1.4697  -0.8907  -0.8907   3.0522
     3.3178   3.3178   3.3420   3.3421   3.4305   5.7276   5.9980   6.2054
     7.0189   7.0206   7.0206   7.2939   7.2939   7.4874   8.8628   8.9152
     9.0014  10.0900  13.6676  13.8954  14.4849  15.4233  15.4234  15.8293
    15.8557  15.8557  16.0528  16.5497  16.6699  17.1722  17.1722  17.4280
    17.6070  17.6483  17.6483  17.9925  18.2111  18.2111  19.0142  19.0142

          k = 0.0909 0.0909 0.0909 (  3812 PWs)   bands (ev):

    -5.5646  -2.1756  -2.1755  -2.1755  -0.8041  -0.8040  -0.8040   3.0165
     3.0166   3.0166   3.4754   3.4754   3.4754   5.2586   6.0635   6.0635
     7.0480   7.0480   7.0480   7.6978   7.6978   7.6978   8.8538   9.0512
     9.0512  10.4506  13.6524  13.6524  14.6902  15.1712  15.1712  15.1712
    15.2777  15.2778  15.2778  17.0960  17.0960  17.0960  17.1326  17.1326
    17.1326  17.1404  18.1708  18.1708  18.5431  18.5431  18.5431  19.1202

          k = 0.0938 0.0000 0.0938 (  3803 PWs)   bands (ev):

    -5.5960  -2.2109  -2.2108  -1.5653  -1.4478  -0.7826  -0.7826   2.9537
     3.2936   3.2936   3.3315   3.3315   3.4468   5.5788   5.9202   6.1959
     7.0377   7.0666   7.0667   7.3811   7.3811   7.6545   8.8838   8.9518
     9.0400  10.2264  13.5799  13.8758  14.5688  15.1680  15.1681  15.6780
    15.7379  15.7379  15.9557  16.3738  16.5248  17.1327  17.1327  17.4075
    17.6439  17.7510  17.7510  18.1283  18.1283  18.1500  19.0212  19.0212

          k = 0.1071 0.1071 0.0000 (  3799 PWs)   bands (ev):

    -5.5726  -2.2994  -2.2994  -1.5777  -1.4224  -0.6750  -0.6749   2.8508
     3.2662   3.2663   3.3219   3.3220   3.4655   5.4211   5.8338   6.1848
     7.0594   7.1224   7.1224   7.4764   7.4765   7.8375   8.9079   8.9923
     9.0750  10.3769  13.4875  13.8558  14.6631  14.9038  14.9039  15.5193
    15.6176  15.6176  15.8501  16.1927  16.3748  17.0867  17.0868  17.3880
    17.6871  17.8124  17.8124  18.0846  18.0846  18.3231  19.0387  19.0387

          k = 0.1136 0.1136 0.1136 (  3803 PWs)   bands (ev):

    -5.5040  -2.3155  -2.3154  -2.3154  -0.6284  -0.6283  -0.6283   2.8726
     2.8726   2.8726   3.5255   3.5255   3.5256   4.8591   5.9849   5.9849
     7.1131   7.1131   7.1131   8.0349   8.0349   8.0349   8.8026   9.1670
     9.1670  10.8142  13.5348  13.5348  14.7299  14.7299  14.7300  14.8322
    14.8323  14.8323  14.9082  17.0069  17.0406  17.0406  17.0406  17.0785
    17.0785  17.0786  18.4944  18.4944  18.5594  18.5594  18.5594  19.1342

          k = 0.1250 0.0000 0.1250 (  3803 PWs)   bands (ev):

    -5.5365  -2.4137  -2.4136  -1.5982  -1.3834  -0.5328  -0.5328   2.7106
     3.2255   3.2255   3.3120   3.3120   3.4943   5.2011   5.7071   6.1673
     7.0927   7.2112   7.2112   7.6154   7.6155   8.1023   8.9452   9.0518
     9.1166  10.5928  13.3602  13.8315  14.5429  14.5430  14.8035  15.2998
    15.4543  15.4543  15.6989  15.9467  16.1701  17.0180  17.0180  17.3656
    17.7505  17.7505  17.7548  18.1653  18.1653  18.5746  19.0741  19.0741

          k = 0.1339 0.1339 0.0000 (  3799 PWs)   bands (ev):

    -5.5164  -2.4692  -2.4691  -1.6105  -1.3616  -0.4627  -0.4627   2.6406
     3.2036   3.2036   3.3088   3.3088   3.5103   5.0882   5.6394   6.1573
     7.1112   7.2614   7.2614   7.6898   7.6898   8.2425   8.9659   9.0836
     9.1356  10.7047  13.2960  13.8215  14.3602  14.3603  14.8793  15.1878
    15.3716  15.3716  15.6197  15.8227  16.0667  16.9813  16.9813  17.3565
    17.6832  17.6832  17.7932  18.2393  18.2393  18.7081  19.0957  19.0957

          k = 0.1364 0.1364 0.1364 (  3797 PWs)   bands (ev):

    -5.4302  -2.4459  -2.4459  -2.4459  -0.4653  -0.4652  -0.4652   2.7406
     2.7406   2.7406   3.5862   3.5862   3.5863   4.4422   5.8999   5.8999
     7.1925   7.1925   7.1925   8.4128   8.4128   8.4128   8.7334   9.2899
     9.2899  11.2029  13.4291  13.4291  14.2827  14.2827  14.2828  14.3665
    14.3666  14.3666  15.1310  16.9100  16.9761  16.9761  16.9761  17.0208
    17.0208  17.0208  18.5717  18.5717  18.5718  18.8573  18.8573  19.1493

          k = 0.1563 0.0000 0.1563 (  3789 PWs)   bands (ev):

    -5.4601  -2.6027  -2.6027  -1.6478  -1.3006  -0.2911  -0.2911   2.4703
     3.1451   3.1451   3.3077   3.3077   3.5549   4.8002   5.4598   6.1285
     7.1629   7.4026   7.4026   7.8887   7.8888   8.6122   9.0241   9.1689
     9.1791  10.9860  13.1372  13.8092  13.9004  13.9004  14.9038  15.0823
    15.1619  15.1619  15.4137  15.5124  15.8068  16.8849  16.8849  17.3418
    17.4834  17.4834  17.9033  18.4459  18.4459  19.0611  19.1587  19.1587

          k = 0.1591 0.1591 0.1591 (  3779 PWs)   bands (ev):

    -5.3435  -2.5668  -2.5667  -2.5667  -0.3226  -0.3225  -0.3225   2.6355
     2.6355   2.6355   3.6572   3.6572   3.6573   4.0172   5.8118   5.8118
     7.2855   7.2855   7.2855   8.6536   8.8237   8.8237   8.8238   9.4118
     9.4118  11.6038  13.3470  13.3470  13.8376  13.8376  13.8377  13.8907
    13.8908  13.8908  15.3157  16.8962  16.9022  16.9022  16.9022  16.9633
    16.9633  16.9633  18.5729  18.5729  18.5729  19.1595  19.1595  19.1595

          k = 0.1607 0.1607 0.0000 (  3789 PWs)   bands (ev):

    -5.4478  -2.6286  -2.6285  -1.6565  -1.2873  -0.2576  -0.2576   2.4374
     3.1329   3.1329   3.3089   3.3089   3.5647   4.7420   5.4223   6.1220
     7.1741   7.4334   7.4334   7.9307   7.9307   8.6891   9.0368   9.1868
     9.1872  11.0413  13.1061  13.8082  13.8083  13.8098  14.8466  15.1194
    15.1194  15.1249  15.3714  15.4505  15.7548  16.8651  16.8651  17.3405
    17.4402  17.4402  17.9278  18.4882  18.4882  19.1346  19.1727  19.1727

          k = 0.1818 0.1818 0.1818 (  3779 PWs)   bands (ev):

    -5.2440  -2.6780  -2.6779  -2.6779  -0.2092  -0.2092  -0.2092   2.5711
     2.5712   2.5712   3.5902   3.7379   3.7379   3.7380   5.7232   5.7232
     7.3914   7.3914   7.3914   8.5682   9.2619   9.2619   9.2619   9.5246
     9.5246  12.0085  13.2990  13.2990  13.3995  13.3995  13.3996  13.4113
    13.4114  13.4114  15.4129  16.8172  16.8172  16.8172  16.9089  16.9089
    16.9089  17.0167  18.5584  18.5584  18.5585  19.1597  19.1597  19.1597

          k = 0.1875 0.0000 0.1875 (  3782 PWs)   bands (ev):

    -5.3672  -2.7772  -2.7771  -1.7186  -1.1996  -0.0640  -0.0640   2.2529
     3.0576   3.0576   3.3284   3.3284   3.6284   4.3908   5.1890   6.0782
     7.2480   7.6347   7.6347   8.1962   8.1962   9.1205   9.1678   9.2324
     9.3004  11.3534  12.9268  13.2568  13.2568  13.8464  14.5029  14.8609
    14.8609  15.0822  15.1124  15.3905  15.4447  16.7444  16.7444  17.1659
    17.1659  17.3444  18.0941  18.7350  18.7350  19.2678  19.2678  19.5929

          k = 0.1875 0.1875 0.0000 (  3782 PWs)   bands (ev):

    -5.3672  -2.7772  -2.7771  -1.7186  -1.1996  -0.0640  -0.0640   2.2529
     3.0576   3.0576   3.3284   3.3284   3.6284   4.3908   5.1890   6.0782
     7.2480   7.6347   7.6347   8.1962   8.1962   9.1205   9.1678   9.2324
     9.3004  11.3534  12.9268  13.2568  13.2568  13.8464  14.5029  14.8609
    14.8609  15.0822  15.1124  15.3905  15.4447  16.7444  16.7444  17.1659
    17.1659  17.3444  18.0941  18.7350  18.7350  19.2678  19.2678  19.5929

          k = 0.2045 0.2045 0.2045 (  3785 PWs)   bands (ev):

    -5.1321  -2.7794  -2.7793  -2.7793  -0.1334  -0.1334  -0.1334   2.5591
     2.5591   2.5591   3.1655   3.8278   3.8278   3.8278   5.6364   5.6364
     7.5094   7.5094   7.5094   8.4809   9.6212   9.6212   9.7228   9.7228
     9.7228  12.4114  12.9332  12.9333  12.9333  12.9720  12.9720  12.9720
    13.2941  13.2941  15.4114  16.7184  16.7184  16.7184  16.8595  16.8595
    16.8595  17.2833  18.5265  18.5265  18.5265  19.1436  19.1436  19.1436

          k = 0.2143 0.2143 0.0000 (  3776 PWs)   bands (ev):

    -5.2745  -2.9146  -2.9146  -1.7995  -1.0985   0.1138   0.1139   2.0956
     2.9804   2.9804   3.3730   3.3730   3.7012   4.0399   4.9448   6.0251
     7.3324   7.8616   7.8616   8.4838   8.4839   9.2170   9.2715   9.4239
     9.6719  11.6073  12.7117  12.7117  12.7648  13.9633  14.1610  14.5953
    14.5953  14.7213  14.8482  15.1398  15.6661  16.6235  16.6235  16.8671
    16.8671  17.3708  18.2955  18.9481  18.9481  19.3883  19.3883  20.0751

          k = 0.2188 0.0000 0.2188 (  3780 PWs)   bands (ev):

    -5.2579  -2.9364  -2.9364  -1.8150  -1.0803   0.1416   0.1417   2.0725
     2.9676   2.9676   3.3832   3.3833   3.7142   3.9817   4.9034   6.0153
     7.3475   7.9016   7.9016   8.5338   8.5338   9.2344   9.2773   9.4454
     9.7580  11.6419  12.6217  12.6218  12.7398  13.9927  14.1044  14.5502
    14.5502  14.6621  14.8040  15.0897  15.7123  16.6036  16.6036  16.8150
    16.8150  17.3775  18.3327  18.9782  18.9782  19.4112  19.4112  20.1574

          k = 0.2273 0.2273 0.2273 (  3779 PWs)   bands (ev):

    -5.0083  -2.8712  -2.8711  -2.8711  -0.0994  -0.0993  -0.0993   2.6059
     2.6060   2.6060   2.7462   3.9260   3.9260   3.9260   5.5528   5.5528
     7.6381   7.6381   7.6382   8.3946   9.6959   9.6959  10.2019  10.2019
    10.2019  12.4610  12.4610  12.4610  12.5574  12.5574  12.5575  12.8074
    13.3388  13.3388  15.3472  16.6010  16.6010  16.6010  16.8164  16.8164
    16.8165  17.6603  18.4771  18.4771  18.4771  19.0979  19.0979  19.0979

          k = 0.2411 0.2411 0.0000 (  3782 PWs)   bands (ev):

    -5.1700  -3.0406  -3.0405  -1.9011  -0.9840   0.2718   0.2718   1.9716
     2.9040   2.9040   3.4472   3.4473   3.6926   3.7828   4.6943   5.9622
     7.4271   8.1107   8.1107   8.7915   8.7915   9.3028   9.3263   9.5570
    10.1958  11.7795  12.1773  12.1774  12.6246  13.8238  14.1858  14.3214
    14.3215  14.3708  14.5827  14.8428  15.9414  16.5057  16.5057  16.5443
    16.5443  17.4204  18.5352  19.1022  19.1022  19.5307  19.5307  20.4937

          k = 0.2500 0.0000 0.2500 (  3784 PWs)   bands (ev):

    -5.1326  -3.0800  -3.0799  -1.9397  -0.9429   0.3194   0.3194   1.9384
     2.8791   2.8791   3.4791   3.4792   3.5781   3.8119   4.6100   5.9390
     7.4609   8.1982   8.1982   8.8981   8.8981   9.3111   9.3656   9.6035
    10.3740  11.8184  12.0022  12.0023  12.5834  13.7127  14.2282  14.2282
    14.2568  14.2846  14.4945  14.7459  16.0313  16.4313  16.4313  16.4676
    16.4676  17.4420  18.6240  19.1402  19.1402  19.5747  19.5747  20.4840

          k = 0.2500 0.2500 0.2500 (  3785 PWs)   bands (ev):

    -4.8731  -2.9536  -2.9535  -2.9535  -0.1055  -0.1054  -0.1054   2.3349
     2.7114   2.7115   2.7115   4.0317   4.0317   4.0317   5.4737   5.4737
     7.7760   7.7760   7.7760   8.3112   9.7459   9.7459  10.6924  10.6924
    10.6925  12.0018  12.0019  12.0019  12.1583  12.1583  12.1583  13.1892
    13.4368  13.4368  15.2632  16.4590  16.4590  16.4590  16.7806  16.7806
    16.7807  18.1067  18.4117  18.4117  18.4117  18.9650  18.9650  18.9650

          k = 0.2679 0.2679 0.0000 (  3766 PWs)   bands (ev):

    -5.0539  -3.1548  -3.1547  -2.0240  -0.8562   0.4068   0.4068   1.8843
     2.8305   2.8305   3.3513   3.5538   3.5539   3.8727   4.4410   5.8891
     7.5316   8.3791   8.3791   9.1170   9.1170   9.3237   9.4484   9.6999
    10.7343  11.6576  11.6577  11.8724  12.5096  13.4931  14.0339  14.0384
    14.0384  14.3190  14.5160  14.5555  16.1972  16.1972  16.2063  16.3936
    16.3936  17.4930  18.8149  19.2010  19.2010  19.6363  19.6363  20.4470

          k = 0.2727 0.2727 0.2727 (  3779 PWs)   bands (ev):

    -4.7273  -3.0267  -3.0266  -3.0266  -0.1446  -0.1445  -0.1445   1.9338
     2.8693   2.8694   2.8694   4.1436   4.1436   4.1436   5.3999   5.3999
     7.9204   7.9204   7.9204   8.2320   9.7713   9.7713  11.1495  11.1495
    11.1495  11.6012  11.6013  11.6013  11.7765  11.7765  11.7766  13.5436
    13.5881  13.5881  15.1945  16.2861  16.2861  16.2861  16.7527  16.7527
    16.7527  18.3330  18.3330  18.3330  18.5928  18.6885  18.6885  18.6886

          k = 0.2946 0.2946 0.0000 (  3764 PWs)   bands (ev):

    -4.9266  -3.2570  -3.2570  -2.1674  -0.7152   0.5176   0.5176   1.8349
     2.7616   2.7616   3.0174   3.6928   3.6929   3.9706   4.1881   5.8057
     7.6453   8.6644   8.6644   9.3304   9.4580   9.4580   9.5831   9.8527
    11.1574  11.1575  11.2798  11.9104  12.4218  13.1702  13.7160  13.7455
    13.7455  14.0594  14.2797  14.9344  15.8265  15.8265  16.2893  16.2893
    16.4514  17.5878  19.1332  19.2638  19.2638  19.6253  19.6253  20.3568

          k = 0.2955 0.2955 0.2955 (  3767 PWs)   bands (ev):

    -4.5718  -3.0910  -3.0909  -3.0909  -0.2069  -0.2069  -0.2069   1.5450
     3.0699   3.0700   3.0700   4.2602   4.2602   4.2602   5.3321   5.3321
     8.0676   8.0676   8.0676   8.1584   9.7753   9.7753  11.0327  11.0328
    11.0328  11.4145  11.4145  11.4145  11.8010  11.8010  11.8010  13.7902
    13.7902  13.8441  15.1799  16.0790  16.0790  16.0790  16.7327  16.7327
    16.7328  18.2442  18.2442  18.2442  18.4005  18.4005  18.4005  19.0771

          k = 0.3182 0.3182 0.3182 (  3764 PWs)   bands (ev):

    -4.4082  -3.1467  -3.1466  -3.1466  -0.2826  -0.2826  -0.2826   1.1708
     3.3030   3.3031   3.3031   4.3796   4.3796   4.3796   5.2707   5.2707
     8.0910   8.2114   8.2114   8.2114   9.7625   9.7625  10.6321  10.6322
    10.6322  11.0744  11.0744  11.0745  12.3135  12.3135  12.3135  14.0382
    14.0382  14.0494  15.2673  15.8419  15.8419  15.8419  16.7209  16.7209
    16.7209  18.1489  18.1489  18.1489  18.1634  18.1634  18.1635  19.0036

          k = 0.3214 0.3214 0.0000 (  3772 PWs)   bands (ev):

    -4.7883  -3.3471  -3.3470  -2.3291  -0.5611   0.6049   0.6049   1.8226
     2.6924   2.6987   2.6987   3.8611   3.8612   3.9382   4.0757   5.7123
     7.7675   8.9640   8.9640   9.3189   9.7305   9.8088   9.8088  10.0158
    10.6852  10.6852  11.8154  11.9234  12.3626  12.8563  13.4320  13.4423
    13.4424  13.8061  14.0166  15.4171  15.4345  15.4345  16.1946  16.1946
    16.6669  17.7041  19.2970  19.2970  19.4822  19.5227  19.5227  20.2420

          k = 0.3409 0.3409 0.3409 (  3758 PWs)   bands (ev):

    -4.2383  -3.1942  -3.1941  -3.1941  -0.3637  -0.3637  -0.3637   0.8139
     3.5592   3.5593   3.5593   4.4994   4.4994   4.4994   5.2161   5.2161
     8.0306   8.3410   8.3410   8.3410   9.7383   9.7383  10.2455  10.2456
    10.2456  10.7593  10.7593  10.7593  12.8451  12.8451  12.8451  14.1394
    14.3267  14.3267  15.4803  15.5891  15.5891  15.5891  16.7169  16.7169
    16.7169  17.9831  17.9831  17.9831  18.0508  18.0508  18.0508  18.9270

          k = 0.3482 0.3482 0.0000 (  3766 PWs)   bands (ev):

    -4.6395  -3.4249  -3.4248  -2.5060  -0.3938   0.6708   0.6709   1.8452
     2.3769   2.6428   2.6428   3.6933   4.0523   4.0524   4.1876   5.6096
     7.8973   9.2759   9.2759   9.2861   9.8905  10.0827  10.0827  10.1894
    10.3319  10.3319  11.9348  12.2752  12.3324  12.5519  13.1293  13.1293
    13.2456  13.5610  13.7677  15.0246  15.0246  15.9449  16.1108  16.1108
    16.8406  17.8411  19.2724  19.2724  19.4352  19.4352  19.8358  20.1201

          k = 0.3636 0.3636 0.3636 (  3761 PWs)   bands (ev):

    -4.0649  -3.2341  -3.2340  -3.2340  -0.4437  -0.4437  -0.4437   0.4775
     3.8295   3.8296   3.8296   4.6166   4.6166   4.6167   5.1685   5.1685
     7.9775   8.4359   8.4359   8.4359   9.7078   9.7078   9.9067   9.9067
     9.9067  10.4722  10.4722  10.4722  13.3683  13.3683  13.3683  14.1475
    14.6502  14.6502  15.3478  15.3478  15.3478  15.7869  16.7200  16.7200
    16.7200  17.8515  17.8515  17.8516  17.9535  17.9535  17.9535  18.8441

          k = 0.3750 0.3750 0.0000 (  3780 PWs)   bands (ev):

    -4.4806  -3.4902  -3.4901  -2.6945  -0.2135   0.7188   0.7189   1.9000
     2.0717   2.5948   2.5948   3.4556   4.2567   4.2568   4.3055   5.4984
     8.0338   9.2299   9.5980   9.5980   9.7763   9.7764  10.0631  10.3737
    10.6072  10.6072  11.9604  12.2578  12.3313  12.4285  12.8073  12.8073
    13.3257  13.3849  13.5342  14.6010  14.6010  16.0390  16.0390  16.5049
    16.9536  17.9981  19.1725  19.1725  19.4226  19.4226  20.0044  20.0044

          k = 0.3864 0.3864 0.3864 (  3773 PWs)   bands (ev):

    -3.8921  -3.2668  -3.2667  -3.2667  -0.5179  -0.5179  -0.5178   0.1661
     4.1051   4.1052   4.1052   4.7277   4.7277   4.7278   5.1281   5.1281
     7.9322   8.4599   8.4599   8.4599   9.6541   9.6541   9.6541   9.6753
     9.6753  10.2170  10.2170  10.2171  13.8395  13.8395  13.8395  14.1182
    15.0037  15.0037  15.1738  15.1738  15.1738  16.1419  16.7292  16.7292
    16.7292  17.7583  17.7583  17.7583  17.8605  17.8605  17.8605  18.7501

          k = 0.4018 0.4018 0.0000 (  3786 PWs)   bands (ev):

    -4.3124  -3.5430  -3.5429  -2.8909  -0.0204   0.7524   0.7524   1.7773
     1.9836   2.5554   2.5554   3.2268   4.4286   4.4613   4.4614   5.3800
     8.1755   9.1506   9.4127   9.4128   9.9279   9.9279  10.2481  10.5687
    10.9970  10.9970  11.9743  12.0088  12.2698  12.3585  12.4777  12.4777
    13.1020  13.3173  13.8518  14.1681  14.1681  15.9802  15.9802  16.9753
    17.0878  18.1757  19.0667  19.0667  19.4317  19.4317  19.8818  19.9036

          k = 0.4091 0.4091 0.4091 (  3761 PWs)   bands (ev):

    -3.7257  -3.2927  -3.2926  -3.2926  -0.5826  -0.5826  -0.5826  -0.1140
     4.3753   4.3754   4.3754   4.8285   4.8285   4.8285   5.0949   5.0949
     7.8948   8.3770   8.3771   8.3771   9.5257   9.5258   9.5258   9.6444
     9.6444   9.9982   9.9982   9.9982  14.0778  14.1363  14.1363  14.1363
    15.2018  15.2018  15.2018  15.3823  15.3823  16.5157  16.7428  16.7428
    16.7428  17.6937  17.6937  17.6937  17.7757  17.7757  17.7757  18.6329

          k = 0.4286 0.4286 0.0000 (  3774 PWs)   bands (ev):

    -4.1354  -3.5832  -3.5831  -3.0918   0.1856   0.7747   0.7747   1.4942
     2.0931   2.5250   2.5250   3.0085   4.5558   4.6490   4.6491   5.2557
     8.3208   9.0503   9.1029   9.1029  10.2630  10.2630  10.4454  10.7746
    11.4030  11.4030  11.7019  12.0325  12.0839  12.1430  12.1430  12.4133
    12.8917  13.1183  13.7304  13.7305  14.4076  15.9350  15.9350  16.8668
    17.6837  18.3774  18.9816  18.9817  19.4414  19.4414  19.5985  19.8185

          k = 0.4318 0.4318 0.4318 (  3777 PWs)   bands (ev):

    -3.5744  -3.3123  -3.3122  -3.3122  -0.6354  -0.6354  -0.6353  -0.3541
     4.6261   4.6262   4.6262   4.9142   4.9142   4.9142   5.0690   5.0690
     7.8656   8.2077   8.2078   8.2078   9.5058   9.5058   9.5058   9.6179
     9.6179   9.8205   9.8205   9.8206  14.0392  14.1663  14.1663  14.1663
    15.5337  15.5337  15.5337  15.7800  15.7800  16.7586  16.7586  16.7586
    16.8870  17.6504  17.6504  17.6504  17.7028  17.7028  17.7028  18.4648

          k = 0.4545 0.4545 0.4545 (  3780 PWs)   bands (ev):

    -3.4499  -3.3260  -3.3259  -3.3259  -0.6743  -0.6743  -0.6743  -0.5421
     4.8375   4.8376   4.8376   4.9799   4.9799   4.9800   5.0505   5.0505
     7.8447   8.0213   8.0213   8.0213   9.5349   9.5349   9.5349   9.5976
     9.5976   9.6890   9.6890   9.6890  14.0086  14.0848  14.0848  14.0848
    16.0162  16.0162  16.0162  16.1873  16.1873  16.7736  16.7736  16.7737
    17.2307  17.6230  17.6230  17.6230  17.6462  17.6462  17.6462  18.2020

          k = 0.4554 0.4554 0.0000 (  3768 PWs)   bands (ev):

    -3.9506  -3.6107  -3.6107  -3.2943   0.4043   0.7884   0.7884   1.2226
     2.2255   2.5040   2.5040   2.8024   4.6862   4.7990   4.7991   5.1270
     8.4678   8.8699   8.8700   8.9325  10.5982  10.5982  10.6551  10.9911
    11.4408  11.7827  11.8079  11.8080  11.8177  11.8177  12.1859  12.4945
    12.6967  12.9384  13.2934  13.2934  14.9777  15.9038  15.9038  16.6045
    18.2647  18.6269  18.9226  18.9226  19.3254  19.4484  19.4484  19.6829

          k = 0.4773 0.4773 0.4773 (  3822 PWs)   bands (ev):

    -3.3664  -3.3341  -3.3340  -3.3340  -0.6981  -0.6981  -0.6981  -0.6638
     4.9830   4.9831   4.9831   5.0215   5.0215   5.0215   5.0394   5.0394
     7.8321   7.8803   7.8803   7.8803   9.5675   9.5675   9.5675   9.5849
     9.5849   9.6080   9.6080   9.6080  13.9893  14.0106  14.0106  14.0106
    16.5071  16.5071  16.5071  16.5744  16.5744  16.7846  16.7846  16.7846
    17.4995  17.6078  17.6078  17.6079  17.6100  17.6100  17.6100  17.8275

          k = 0.4821 0.4821 0.0000 (  3760 PWs)   bands (ev):

    -3.7591  -3.6256  -3.6255  -3.4957   0.6354   0.7952   0.7952   0.9629
     2.3784   2.4927   2.4927   2.6101   4.8185   4.8890   4.8891   4.9956
     8.6138   8.7355   8.7356   8.8016  10.8769  10.9141  10.9141  11.1912
    11.2181  11.4922  11.4922  11.5357  12.2282  12.2282  12.3135  12.5191
    12.6007  12.7790  12.8705  12.8705  15.5339  15.8869  15.8869  16.2049
    18.6937  18.8908  18.8908  19.0570  19.0608  19.4522  19.4522  19.6757

          k = 0.5000 0.5000 0.5000 (  3840 PWs)   bands (ev):

    -3.3369  -3.3367  -3.3367  -3.3367  -0.7062  -0.7062  -0.7062  -0.7061
     5.0356   5.0356   5.0356   5.0357   5.0357   5.0357   5.0358   5.0358
     7.8278   7.8279   7.8279   7.8279   9.5806   9.5806   9.5806   9.5806
     9.5806   9.5806   9.5806   9.5806  13.9827  13.9827  13.9827  13.9828
    16.7886  16.7886  16.7886  16.7886  16.7886  16.7886  16.7886  16.7886
    17.5975  17.5975  17.5975  17.5975  17.5975  17.5975  17.5975  17.5975

          k = 0.5089 0.5089 0.0000 (  3742 PWs)   bands (ev):

    -3.6940  -3.6277  -3.6276  -3.5622   0.7153   0.7961   0.7961   0.8790
     2.4335   2.4910   2.4910   2.5494   4.8628   4.9025   4.9026   4.9514
     8.6617   8.7157   8.7158   8.7558  10.9535  10.9957  10.9957  11.1107
    11.2960  11.4106  11.4106  11.4548  12.3490  12.3490  12.3613  12.4642
    12.6415  12.7307  12.7480  12.7480  15.7116  15.8845  15.8845  16.0486
    18.7930  18.8862  18.8862  18.9733  19.2498  19.4527  19.4527  19.6616

          k = 0.5357 0.5357 0.0000 (  3770 PWs)   bands (ev):

    -3.8875  -3.6171  -3.6170  -3.3616   0.4799   0.7913   0.7913   1.1347
     2.2743   2.4992   2.4992   2.7367   4.7301   4.8367   4.8368   5.0835
     8.5167   8.8132   8.8133   8.8902  10.7080  10.7080  10.7277  11.0657
    11.3563  11.6983  11.6983  11.6998  11.9565  11.9565  12.2257  12.5272
    12.6355  12.8829  13.1493  13.1494  15.1659  15.8966  15.8966  16.4846
    18.4351  18.7397  18.9090  18.9090  19.2365  19.4500  19.4500  19.6669

          k = 0.5625 0.5625 0.0000 (  3766 PWs)   bands (ev):

    -4.0746  -3.5938  -3.5937  -3.1592   0.2571   0.7801   0.7801   1.4023
     2.1348   2.5170   2.5170   2.9384   4.5990   4.7043   4.7044   5.2132
     8.3697   9.0128   9.0156   9.0156  10.3751  10.3751  10.5140  10.8456
    11.5405  11.5406  11.6136  11.9495  12.0309  12.0310  12.1149  12.4375
    12.8249  13.0561  13.5844  13.5844  14.5977  15.9230  15.9230  16.7965
    17.8821  18.4524  18.9590  18.9590  19.4441  19.4441  19.5064  19.7591

          k = 0.5893 0.5893 0.0000 (  3778 PWs)   bands (ev):

    -4.2543  -3.5578  -3.5577  -2.9575   0.0469   0.7609   0.7609   1.6817
     2.0174   2.5442   2.5442   3.1528   4.4706   4.5267   4.5268   5.3392
     8.2236   9.1193   9.3023   9.3023  10.0392  10.0392  10.3125  10.6361
    11.1310  11.1310  11.8823  12.0308  12.1941  12.3665  12.3665  12.3738
    13.0304  13.2489  14.0225  14.0225  14.0329  15.9636  15.9636  16.9554
    17.2856  18.2399  19.0356  19.0356  19.4351  19.4351  19.7863  19.8744

          k = 0.6161 0.6161 0.0000 (  3772 PWs)   bands (ev):

    -4.4256  -3.5092  -3.5091  -2.7592  -0.1506   0.7314   0.7315   1.9248
     1.9724   2.5807   2.5807   3.3783   4.3256   4.3257   4.3460   5.4597
     8.0805   9.2060   9.6510   9.6511   9.7072   9.7072  10.1233  10.4375
    10.7344  10.7344  11.9737  12.1621  12.3372  12.3945  12.6982  12.6982
    13.2498  13.4600  13.5201  14.4575  14.4575  16.0179  16.0179  16.6971
    16.9728  18.0549  19.1357  19.1357  19.4250  19.4250  19.9688  19.9688

          k = 0.6429 0.6429 0.0000 (  3764 PWs)   bands (ev):

    -4.5876  -3.4480  -3.4480  -2.5677  -0.3352   0.6887   0.6887   1.8601
     2.2740   2.6259   2.6259   3.6132   4.1195   4.1196   4.2263   5.5734
     7.9421   9.2700   9.3822   9.3823   9.9467  10.0198  10.0199  10.2496
    10.3787  10.3787  11.9412  12.3288  12.3750  12.4527  13.0229  13.0229
    13.2415  13.4814  13.6881  14.8847  14.8847  16.0855  16.0855  16.1285
    16.8863  17.8912  19.2439  19.2439  19.4252  19.4252  19.9424  20.0804

          k = 0.6696 0.6696 0.0000 (  3764 PWs)   bands (ev):

    -4.7398  -3.3744  -3.3743  -2.3866  -0.5068   0.6291   0.6291   1.8264
     2.5861   2.6792   2.6792   3.8559   3.9227   3.9228   4.1123   5.6791
     7.8099   9.0667   9.0667   9.3105   9.7825   9.9237   9.9237  10.0725
    10.5389  10.5390  11.9264  11.9839  12.3493  12.7537  13.3391  13.3391
    13.3524  13.7234  13.9320  15.2997  15.2997  15.5887  16.1653  16.1653
    16.7302  17.7475  19.2983  19.2983  19.4859  19.4859  19.6019  20.2014

          k = 0.6964 0.6964 0.0000 (  3772 PWs)   bands (ev):

    -4.8817  -3.2884  -3.2883  -2.2194  -0.6653   0.5492   0.5493   1.8268
     2.7399   2.7399   2.9081   3.7459   3.7460   4.0048   4.1044   5.7757
     7.6851   8.7627   8.7628   9.3287   9.5744   9.5744   9.6308   9.9059
    10.9961  10.9962  11.4609  11.9162  12.3989  13.0645  13.6162  13.6456
    13.6456  13.9742  14.1905  15.0892  15.6981  15.6981  16.2566  16.2566
    16.5270  17.6243  19.2469  19.2785  19.2785  19.5966  19.5966  20.3203

          k = 0.7232 0.7232 0.0000 (  3758 PWs)   bands (ev):

    -5.0127  -3.1902  -3.1901  -2.0696  -0.8107   0.4464   0.4465   1.8637
     2.8070   2.8070   3.2391   3.5966   3.5967   3.9045   4.3566   5.8624
     7.5685   8.4725   8.4725   9.2291   9.2291   9.3277   9.4919   9.7497
    10.9159  11.4884  11.4885  11.8896  12.4772  13.3845  13.9254  13.9419
    13.9419  14.2319  14.4622  14.6469  16.0762  16.0762  16.2906  16.3579
    16.3579  17.5221  18.9169  19.2252  19.2252  19.6473  19.6473  20.4209

          k = 0.7500 0.7500 0.0000 (  3784 PWs)   bands (ev):

    -5.1326  -3.0800  -3.0799  -1.9397  -0.9429   0.3194   0.3194   1.9384
     2.8791   2.8791   3.4791   3.4792   3.5781   3.8119   4.6100   5.9390
     7.4609   8.1982   8.1982   8.8981   8.8981   9.3111   9.3656   9.6035
    10.3740  11.8184  12.0022  12.0023  12.5834  13.7127  14.2282  14.2282
    14.2568  14.2846  14.4945  14.7459  16.0313  16.4313  16.4313  16.4676
    16.4676  17.4420  18.6240  19.1402  19.1402  19.5747  19.5747  20.4840

     Writing output data file bulk_Si.save/

     init_run     :      0.32s CPU      0.36s WALL (       1 calls)
     electrons    :     50.07s CPU     57.83s WALL (       1 calls)

     Called by init_run:
     wfcinit      :      0.00s CPU      0.02s WALL (       1 calls)
     potinit      :      0.04s CPU      0.04s WALL (       1 calls)
     hinit0       :      0.04s CPU      0.05s WALL (       1 calls)

     Called by electrons:
     c_bands      :     50.07s CPU     57.82s WALL (       1 calls)
     v_of_rho     :      0.03s CPU      0.03s WALL (       1 calls)

     Called by c_bands:
     init_us_2    :      0.01s CPU      0.01s WALL (      84 calls)
     cegterg      :     40.12s CPU     41.72s WALL (     180 calls)

     Called by sum_band:

     Called by *egterg:
     h_psi        :      4.34s CPU      4.44s WALL (    2829 calls)
     g_psi        :      0.10s CPU      0.10s WALL (    2565 calls)
     cdiaghg      :     20.89s CPU     21.87s WALL (    2649 calls)

     Called by h_psi:
     h_psi:pot    :      4.32s CPU      4.42s WALL (    2829 calls)
     h_psi:calbec :      0.43s CPU      0.44s WALL (    2829 calls)
     vloc_psi     :      3.65s CPU      3.74s WALL (    2829 calls)
     add_vuspsi   :      0.23s CPU      0.24s WALL (    2829 calls)

     General routines
     calbec       :      0.43s CPU      0.44s WALL (    2829 calls)
     fft          :      0.02s CPU      0.02s WALL (      11 calls)
     ffts         :      0.00s CPU      0.00s WALL (       1 calls)
     fftw         :      3.45s CPU      3.53s WALL (   32118 calls)
     interpolate  :      0.00s CPU      0.00s WALL (       1 calls)
     davcio       :      0.07s CPU      5.07s WALL (     168 calls)

     Parallel routines
     fft_scatt_xy :      0.30s CPU      0.30s WALL (   32130 calls)
     fft_scatt_yz :      1.70s CPU      1.74s WALL (   32130 calls)

     PWSCF        :     53.68s CPU   1m 9.88s WALL


   This run was terminated on:  21:31:31  31Oct2020            

=------------------------------------------------------------------------------=
   JOB DONE.
=------------------------------------------------------------------------------=
