     Message from routine get_command_line:
     unexpected argument # 2     :8.0

     Program PWSCF v.6.4.1 starts on 31Oct2020 at 21:30: 3 

     This program is part of the open-source Quantum ESPRESSO suite
     for quantum simulation of materials; please cite
         "P. Giannozzi et al., J. Phys.:Condens. Matter 21 395502 (2009);
         "P. Giannozzi et al., J. Phys.:Condens. Matter 29 465901 (2017);
          URL http://www.quantum-espresso.org", 
     in publications or presentations arising from this work. More details at
     http://www.quantum-espresso.org/quote

     Parallel version (MPI), running on    32 processors

     MPI processes distributed on     1 nodes
     band groups division:  nbgrp     =       4
     R & G space division:  proc/nbgrp/npool/nimage =       8
     Waiting for input...
     Reading input from standard input

     Current dimensions of program PWSCF are:
     Max number of different atomic species (ntypx) = 10
     Max number of k-points (npk) =  40000
     Max angular momentum in pseudopotentials (lmaxx) =  3

     Subspace diagonalization in iterative solution of the eigenvalue problem:
     one sub-group per band group will be used
     scalapack distributed-memory algorithm (size of sub-group:  2*  2 procs)

     Message from routine setup:
     no reason to have ecutrho>4*ecutwfc
     Found symmetry operation: I + (  0.0000 -0.5000 -0.5000)
     This is a supercell, fractional translations are disabled

     Parallelization info
     --------------------
     sticks:   dense  smooth     PW     G-vecs:    dense   smooth      PW
     Min         367     147     43                14937     3776     617
     Max         368     149     44                14940     3778     620
     Sum        2941    1185    349               119513    30215    4945


     Title: 
     Bulk Silicon                                                               


     bravais-lattice index     =            1
     lattice parameter (alat)  =      10.2612  a.u.
     unit-cell volume          =    1080.4287 (a.u.)^3
     number of atoms/cell      =            8
     number of atomic types    =            1
     number of electrons       =        32.00
     number of Kohn-Sham states=           48
     kinetic-energy cutoff     =      35.0000  Ry
     charge density cutoff     =     350.0000  Ry
     convergence threshold     =      1.0E-06
     mixing beta               =       0.7000
     number of iterations used =            8  plain     mixing
     Exchange-correlation      =  SLA  PW   PBE  PBE ( 1  4  3  4 0 0)

     celldm(1)=  10.261213  celldm(2)=   0.000000  celldm(3)=   0.000000
     celldm(4)=   0.000000  celldm(5)=   0.000000  celldm(6)=   0.000000

     crystal axes: (cart. coord. in units of alat)
               a(1) = (   1.000000   0.000000   0.000000 )  
               a(2) = (   0.000000   1.000000   0.000000 )  
               a(3) = (   0.000000   0.000000   1.000000 )  

     reciprocal axes: (cart. coord. in units 2 pi/alat)
               b(1) = (  1.000000  0.000000  0.000000 )  
               b(2) = (  0.000000  1.000000  0.000000 )  
               b(3) = (  0.000000  0.000000  1.000000 )  


     PseudoPot. # 1 for Si read from file:
     input/Si.pbe-rrkj.UPF
     MD5 check sum: cf7ab5690cd9a85b22c4813f7e365554
     Pseudo is Norm-conserving, Zval =  4.0
     Generated by new atomic code, or converted to UPF format
     Using radial grid of  883 points,  3 beta functions with: 
                l(1) =   0
                l(2) =   0
                l(3) =   1

     atomic species   valence    mass     pseudopotential
        Si             4.00    28.05900     Si( 1.00)

     24 Sym. Ops. (no inversion) found



   Cartesian axes

     site n.     atom                  positions (alat units)
         1           Si  tau(   1) = (   0.0000000   0.0000000   0.0000000  )
         2           Si  tau(   2) = (   0.0000000   0.5000000   0.5000000  )
         3           Si  tau(   3) = (   0.5000000   0.5000000   0.0000000  )
         4           Si  tau(   4) = (   0.5000000   0.0000000   0.5000000  )
         5           Si  tau(   5) = (   0.7500000   0.2500000   0.7500000  )
         6           Si  tau(   6) = (   0.2500000   0.2500000   0.2500000  )
         7           Si  tau(   7) = (   0.2500000   0.7500000   0.7500000  )
         8           Si  tau(   8) = (   0.7500000   0.7500000   0.2500000  )

     number of k points=    35 (tetrahedron method)
                       cart. coord. in units 2pi/alat
        k(    1) = (   0.0000000   0.0000000   0.0000000), wk =   0.0039062
        k(    2) = (   0.0000000   0.0000000   0.1250000), wk =   0.0234375
        k(    3) = (   0.0000000   0.0000000   0.2500000), wk =   0.0234375
        k(    4) = (   0.0000000   0.0000000   0.3750000), wk =   0.0234375
        k(    5) = (   0.0000000   0.0000000  -0.5000000), wk =   0.0117188
        k(    6) = (   0.0000000   0.1250000   0.1250000), wk =   0.0468750
        k(    7) = (   0.0000000   0.1250000   0.2500000), wk =   0.0937500
        k(    8) = (   0.0000000   0.1250000   0.3750000), wk =   0.0937500
        k(    9) = (   0.0000000   0.1250000  -0.5000000), wk =   0.0468750
        k(   10) = (   0.0000000   0.2500000   0.2500000), wk =   0.0468750
        k(   11) = (   0.0000000   0.2500000   0.3750000), wk =   0.0937500
        k(   12) = (   0.0000000   0.2500000  -0.5000000), wk =   0.0468750
        k(   13) = (   0.0000000   0.3750000   0.3750000), wk =   0.0468750
        k(   14) = (   0.0000000   0.3750000  -0.5000000), wk =   0.0468750
        k(   15) = (   0.0000000  -0.5000000  -0.5000000), wk =   0.0117188
        k(   16) = (   0.1250000   0.1250000   0.1250000), wk =   0.0312500
        k(   17) = (   0.1250000   0.1250000   0.2500000), wk =   0.0937500
        k(   18) = (   0.1250000   0.1250000   0.3750000), wk =   0.0937500
        k(   19) = (   0.1250000   0.1250000  -0.5000000), wk =   0.0468750
        k(   20) = (   0.1250000   0.2500000   0.2500000), wk =   0.0937500
        k(   21) = (   0.1250000   0.2500000   0.3750000), wk =   0.1875000
        k(   22) = (   0.1250000   0.2500000  -0.5000000), wk =   0.0937500
        k(   23) = (   0.1250000   0.3750000   0.3750000), wk =   0.0937500
        k(   24) = (   0.1250000   0.3750000  -0.5000000), wk =   0.0937500
        k(   25) = (   0.1250000  -0.5000000  -0.5000000), wk =   0.0234375
        k(   26) = (   0.2500000   0.2500000   0.2500000), wk =   0.0312500
        k(   27) = (   0.2500000   0.2500000   0.3750000), wk =   0.0937500
        k(   28) = (   0.2500000   0.2500000  -0.5000000), wk =   0.0468750
        k(   29) = (   0.2500000   0.3750000   0.3750000), wk =   0.0937500
        k(   30) = (   0.2500000   0.3750000  -0.5000000), wk =   0.0937500
        k(   31) = (   0.2500000  -0.5000000  -0.5000000), wk =   0.0234375
        k(   32) = (   0.3750000   0.3750000   0.3750000), wk =   0.0312500
        k(   33) = (   0.3750000   0.3750000  -0.5000000), wk =   0.0468750
        k(   34) = (   0.3750000  -0.5000000  -0.5000000), wk =   0.0234375
        k(   35) = (  -0.5000000  -0.5000000  -0.5000000), wk =   0.0039062

     Dense  grid:   119513 G-vectors     FFT dimensions: (  64,  64,  64)

     Smooth grid:    30215 G-vectors     FFT dimensions: (  40,  40,  40)

     Estimated max dynamical RAM per process >      24.75 MB

     Estimated total dynamical RAM >     791.90 MB

     Initial potential from superposition of free atoms

     starting charge   31.99557, renormalised to   32.00000
     Starting wfcs are   32 randomized atomic wfcs +   16 random wfcs

     total cpu time spent up to now is        1.5 secs

     Self-consistent Calculation

     iteration #  1     ecut=    35.00 Ry     beta= 0.70
     Davidson diagonalization with overlap
     ethr =  1.00E-02,  avg # of iterations =  6.9

     Threshold (ethr) on eigenvalues was too large:
     Diagonalizing with lowered threshold

     Davidson diagonalization with overlap
     ethr =  7.43E-04,  avg # of iterations =  1.9

     total cpu time spent up to now is        8.2 secs

     total energy              =     -62.95438812 Ry
     Harris-Foulkes estimate   =     -63.01067185 Ry
     estimated scf accuracy    <       0.23677200 Ry

     iteration #  2     ecut=    35.00 Ry     beta= 0.70
     Davidson diagonalization with overlap
     ethr =  7.40E-04,  avg # of iterations =  1.2

     total cpu time spent up to now is        9.6 secs

     total energy              =     -62.96511405 Ry
     Harris-Foulkes estimate   =     -62.96475013 Ry
     estimated scf accuracy    <       0.00875174 Ry

     iteration #  3     ecut=    35.00 Ry     beta= 0.70
     Davidson diagonalization with overlap
     ethr =  2.73E-05,  avg # of iterations =  6.7

     total cpu time spent up to now is       12.9 secs

     total energy              =     -62.96545176 Ry
     Harris-Foulkes estimate   =     -62.96540659 Ry
     estimated scf accuracy    <       0.00022184 Ry

     iteration #  4     ecut=    35.00 Ry     beta= 0.70
     Davidson diagonalization with overlap
     ethr =  6.93E-07,  avg # of iterations =  2.8

     total cpu time spent up to now is       14.4 secs

     End of self-consistent calculation

          k = 0.0000 0.0000 0.0000 (  3791 PWs)   bands (ev):

    -5.6734  -1.5312  -1.5312  -1.5311  -1.5311  -1.5311  -1.5311   3.3849
     3.3849   3.3849   3.3849   3.3849   3.3849   6.2300   6.2300   6.2300
     6.9657   6.9657   6.9657   6.9657   6.9657   6.9657   8.8045   8.8045
     8.8045   9.7018  13.9600  13.9600  14.2390  16.3574  16.3574  16.3574
    16.3575  16.3575  16.3575  17.2098  17.2098  17.2098  17.2099  17.2099
    17.2099  17.5061  17.5061  17.5062  18.7820  18.7821  18.7821  18.7824

          k = 0.0000 0.0000 0.1250 (  3807 PWs)   bands (ev):

    -5.6051  -2.4541  -1.5087  -1.5087  -1.5087  -1.5086  -0.5272   3.1989
     3.1989   3.1989   3.1989   3.4465   3.4465   5.8220   5.9687   5.9687
     6.8336   7.2821   7.3235   7.3235   7.3235   7.3235   8.6453   9.1499
     9.1499  10.0897  13.4778  14.0359  14.5327  15.4588  15.4588  15.6473
    15.6473  15.6473  15.6473  16.8785  16.8786  16.8786  16.8786  17.6250
    17.6251  17.6593  17.8419  18.1267  18.1268  18.2416  19.0179  19.0179

          k = 0.0000 0.0000 0.2500 (  3791 PWs)   bands (ev):

    -5.4006  -3.2798  -1.4519  -1.4519  -1.4519  -1.4518   0.5376   2.8225
     2.8225   2.8225   2.8225   3.6303   3.6303   4.9245   5.4267   5.4267
     6.8714   7.7939   8.2215   8.2215   8.2215   8.2215   8.2591   9.9416
     9.9416  10.6959  12.7589  14.0922  14.0922  14.0922  14.0922  14.2635
    14.2780  14.2780  15.3185  16.6821  16.8151  16.8152  16.8152  16.8152
    16.9976  17.9788  17.9788  18.4688  19.1403  19.1403  19.1403  19.1403

          k = 0.0000 0.0000 0.3750 (  3780 PWs)   bands (ev):

    -5.0617  -3.9955  -1.3910  -1.3910  -1.3910  -1.3910   1.6406   2.5064
     2.5064   2.5064   2.5064   3.8664   3.9326   3.9326   4.8552   4.8552
     7.0622   7.8027   8.5035   9.4186   9.4186   9.4186   9.4186  10.3259
    10.9222  10.9222  12.4842  12.4842  12.4842  12.4842  13.1170  13.1170
    13.1647  14.6426  15.6722  15.8528  16.4237  16.8157  16.8157  16.8158
    16.8158  18.5511  18.5511  18.9748  19.1657  19.2508  19.2508  19.2508

          k = 0.0000 0.0000-0.5000 (  3804 PWs)   bands (ev):

    -4.5918  -4.5918  -1.3644  -1.3644  -1.3644  -1.3644   2.3865   2.3865
     2.3865   2.3866   2.7585   2.7585   4.3459   4.3459   4.3459   4.3459
     7.3839   7.3839   9.3879   9.3880  10.5054  10.5054  10.5054  10.5054
    11.2619  11.2619  11.2619  11.2619  11.9932  11.9932  11.9932  11.9932
    14.3430  14.3430  15.1725  15.1726  16.8191  16.8191  16.8191  16.8191
    17.6994  17.6994  19.2683  19.2685  19.2936  19.2984  19.3001  19.3001

          k = 0.0000 0.1250 0.1250 (  3803 PWs)   bands (ev):

    -5.5370  -2.4142  -2.4142  -1.5987  -1.3839  -0.5333  -0.5333   2.7101
     3.2251   3.2251   3.3116   3.3116   3.4939   5.2006   5.7066   6.1668
     7.0917   7.2102   7.2102   7.6145   7.6145   8.1014   8.9449   9.0513
     9.1162  10.5921  13.3600  13.8313  14.5424  14.5425  14.8009  15.2995
    15.4538  15.4539  15.6984  15.9459  16.1697  17.0174  17.0174  17.3644
    17.7500  17.7500  17.7540  18.1649  18.1649  18.5740  19.0734  19.0735

          k = 0.0000 0.1250 0.2500 (  3791 PWs)   bands (ev):

    -5.3335  -3.2289  -2.3011  -1.6826  -1.2146  -0.5655   0.4844   2.2810
     2.7690   3.0550   3.3852   3.4172   3.5675   4.3655   5.1615   5.8108
     7.2598   7.5695   8.0954   8.1350   8.4713   8.6225   9.1955   9.5400
     9.8158  11.2101  12.8465  13.0018  13.4445  13.9624  14.0482  14.2657
    14.2999  15.1854  15.5145  15.5994  15.6159  16.2162  16.7046  17.5030
    17.5060  17.7200  18.0806  18.1406  18.5197  19.3297  19.4640  19.6295

          k = 0.0000 0.1250 0.3750 (  3769 PWs)   bands (ev):

    -4.9965  -3.9377  -2.1357  -1.7957  -1.0129  -0.6539   1.5110   2.0529
     2.3417   2.8953   3.1495   3.4658   3.6732   3.9693   4.5875   5.1629
     7.4551   8.1830   8.5721   8.7707   9.3519   9.6272  10.2088  10.4626
    10.8164  10.8230  11.4598  12.3943  12.4150  12.6743  13.0789  13.4231
    13.6274  14.5866  15.5204  15.5378  15.6277  16.4864  16.5006  16.5290
    17.2097  17.9712  18.4063  18.7744  18.8557  19.4022  19.4593  20.1453

          k = 0.0000 0.1250-0.5000 (  3790 PWs)   bands (ev):

    -4.5295  -4.5294  -1.9538  -1.9537  -0.8115  -0.8114   2.0791   2.0791
     2.5125   2.5125   2.9336   2.9336   4.0795   4.0795   4.5122   4.5122
     7.7741   7.7742   9.6145   9.6145   9.8248   9.8248  10.6898  10.6898
    11.1815  11.1815  11.4022  11.4022  11.9249  11.9249  12.1201  12.1201
    14.5275  14.5275  15.3965  15.3965  15.5208  15.5209  16.8756  16.8756
    17.5825  17.5825  18.6754  18.6754  19.1538  19.1538  19.5790  19.5790

          k = 0.0000 0.2500 0.2500 (  3784 PWs)   bands (ev):

    -5.1331  -3.0805  -3.0804  -1.9402  -0.9434   0.3189   0.3190   1.9377
     2.8786   2.8786   3.4786   3.4787   3.5776   3.8115   4.6095   5.9385
     7.4599   8.1973   8.1973   8.8972   8.8972   9.3107   9.3653   9.6028
    10.3732  11.8176  12.0017  12.0017  12.5831  13.7124  14.2277  14.2277
    14.2560  14.2842  14.4938  14.7454  16.0290  16.4309  16.4309  16.4668
    16.4669  17.4406  18.6231  19.1398  19.1399  19.5740  19.5740  20.4826

          k = 0.0000 0.2500 0.3750 (  3767 PWs)   bands (ev):

    -4.8019  -3.7667  -2.8474  -2.2381  -0.6294   0.0479   1.1701   1.8511
     2.3796   2.7796   3.1365   3.5014   3.8332   4.0317   4.0838   5.5156
     8.0405   8.3916   9.0709   9.4170   9.5069   9.6232   9.9603  10.5687
    10.6064  11.1000  11.2584  11.6039  12.4773  12.9698  12.9867  13.0467
    14.0613  14.1601  14.8478  15.0255  15.2000  15.2665  15.9944  16.7105
    17.3594  17.7681  17.8522  19.1689  19.3890  19.8281  20.1339  20.4166

          k = 0.0000 0.2500-0.5000 (  3782 PWs)   bands (ev):

    -4.3441  -4.3441  -2.5543  -2.5543  -0.2864  -0.2864   1.9836   1.9836
     2.0138   2.0138   3.5277   3.5277   3.6545   3.6545   4.8095   4.8095
     8.6950   8.6950   9.1182   9.1182  10.1691  10.1691  10.4329  10.4329
    10.7870  10.7870  11.4666  11.4667  11.7400  11.7400  13.2731  13.2732
    14.0419  14.0419  14.1137  14.1137  15.4966  15.4966  16.5096  16.5097
    17.3436  17.3436  18.3694  18.3694  20.1337  20.1338  20.3422  20.3423

          k = 0.0000 0.3750 0.3750 (  3780 PWs)   bands (ev):

    -4.4812  -3.4907  -3.4907  -2.6950  -0.2140   0.7183   0.7184   1.8994
     2.0712   2.5942   2.5942   3.4551   4.2563   4.2563   4.3051   5.4980
     8.0329   9.2294   9.5973   9.5973   9.7757   9.7757  10.0628  10.3727
    10.6065  10.6065  11.9595  12.2575  12.3309  12.4272  12.8067  12.8067
    13.3250  13.3845  13.5337  14.6005  14.6005  16.0382  16.0382  16.5045
    16.9519  17.9966  19.1712  19.1713  19.4221  19.4222  20.0031  20.0931

          k = 0.0000 0.3750-0.5000 (  3770 PWs)   bands (ev):

    -4.0407  -4.0407  -3.1249  -3.1249   0.2408   0.2408   1.3847   1.3848
     2.1622   2.1622   2.9615   2.9615   4.3961   4.3961   5.0066   5.0066
     8.6772   8.6772   9.3185   9.3185   9.8661   9.8661  10.9480  10.9481
    11.2831  11.2831  11.4910  11.4910  11.9268  11.9268  12.6154  12.6154
    13.2923  13.2924  13.9832  13.9832  14.6248  14.6248  16.8629  16.8629
    17.8865  17.8865  18.5231  18.5231  19.5771  19.5772  19.8045  19.8046

          k = 0.0000-0.5000-0.5000 (  3724 PWs)   bands (ev):

    -3.6289  -3.6289  -3.6289  -3.6288   0.7959   0.7959   0.7959   0.7960
     2.4899   2.4899   2.4899   2.4899   4.9066   4.9067   4.9067   4.9067
     8.7084   8.7084   8.7085   8.7085  11.0311  11.0311  11.0311  11.0311
    11.3739  11.3739  11.3739  11.3739  12.4107  12.4107  12.4107  12.4107
    12.6844  12.6844  12.6844  12.6844  15.8829  15.8829  15.8829  15.8829
    18.8831  18.8832  18.8832  18.8832  19.4524  19.4525  19.4525  19.4525

          k = 0.1250 0.1250 0.1250 (  3797 PWs)   bands (ev):

    -5.4693  -2.3824  -2.3824  -2.3823  -0.5453  -0.5453  -0.5452   2.8036
     2.8036   2.8036   3.5542   3.5542   3.5542   4.6517   5.9425   5.9425
     7.1501   7.1501   7.1501   8.2184   8.2184   8.2184   8.7692   9.2278
     9.2278  11.0056  13.4795  13.4795  14.5061  14.5061  14.5061  14.6006
    14.6006  14.6006  15.0187  16.9500  17.0087  17.0087  17.0087  17.0494
    17.0494  17.0494  18.5664  18.5665  18.5665  18.6708  18.6709  19.1410

          k = 0.1250 0.1250 0.2500 (  3780 PWs)   bands (ev):

    -5.2669  -3.1816  -2.2990  -2.2990  -0.5862  -0.5861   0.4084   2.4059
     2.4059   3.0884   3.4929   3.4929   3.7338   3.8537   5.4527   5.6909
     7.3233   7.6405   7.6405   8.5687   8.7497   9.2617   9.2885   9.2885
     9.8895  11.5739  12.9913  13.0292  13.0292  13.4071  13.4801  13.8381
    14.5670  14.5671  15.3891  15.3892  15.5655  17.1244  17.1521  17.1521
    17.3420  17.7096  18.0787  18.3100  18.6542  18.6542  18.9562  19.7572

          k = 0.1250 0.1250 0.3750 (  3776 PWs)   bands (ev):

    -4.9319  -3.8817  -2.2037  -2.2037  -0.6485  -0.6485   1.3372   2.1808
     2.1808   3.0394   3.2785   3.2785   3.5706   4.0282   4.9161   4.9994
     7.6038   8.3970   8.6388   8.6388   9.1463   9.9718  10.5227  10.5227
    10.7054  10.9964  11.5294  11.5294  12.2451  12.5061  13.6865  13.6866
    13.7727  14.4313  14.6439  14.6439  16.2245  16.2914  16.4484  17.3273
    17.3273  17.8531  17.9172  18.4839  18.4840  19.3971  19.4628  20.0272

          k = 0.1250 0.1250-0.5000 (  3776 PWs)   bands (ev):

    -4.4682  -4.4682  -2.1596  -2.1595  -0.6823  -0.6823   2.1174   2.1174
     2.2107   2.2107   3.1722   3.1722   4.2334   4.2334   4.4283   4.4283
     7.9745   7.9745   9.7799   9.7799   9.9083   9.9083  10.0789  10.0789
    11.1560  11.1560  11.5840  11.5840  11.8920  11.8921  12.3438  12.3438
    14.6449  14.6449  15.0664  15.0664  15.2392  15.2393  17.1270  17.1270
    17.4260  17.4260  18.3813  18.3813  18.9010  18.9011  19.8108  19.8109

          k = 0.1250 0.2500 0.2500 (  3770 PWs)   bands (ev):

    -5.0680  -3.0456  -3.0456  -2.3187  -0.6182   0.1915   0.1916   2.1424
     2.7680   2.7680   3.0861   3.7274   3.7274   3.8670   5.0542   5.8061
     7.5406   7.8471   7.8471   8.7642   9.4675   9.5718   9.5718   9.8292
    10.4523  12.0215  12.0216  12.2339  12.8061  13.0448  13.1703  13.4352
    13.4352  14.0523  15.5384  15.5544  15.6828  16.4985  16.4985  17.1792
    17.1792  17.4474  18.3168  18.3168  19.1118  19.1118  19.5403  19.8856

          k = 0.1250 0.2500 0.3750 (  3784 PWs)   bands (ev):

    -4.7394  -3.7171  -2.8412  -2.4171  -0.5761  -0.1095   0.9208   2.1147
     2.3344   2.5051   3.3028   3.6766   3.8991   4.1449   4.4812   5.4146
     8.1140   8.1678   8.8333   8.8693   9.5567  10.0547  10.4208  10.4405
    10.9585  11.0865  11.4076  11.6306  11.9614  12.3259  13.2015  13.3968
    13.4716  13.9260  14.8929  15.0595  15.8435  15.8648  16.0404  16.7252
    17.0834  17.7109  18.2430  18.5602  18.7289  19.4949  19.7854  19.9197

          k = 0.1250 0.2500-0.5000 (  3784 PWs)   bands (ev):

    -4.2864  -4.2863  -2.6098  -2.6098  -0.3959  -0.3959   1.6205   1.6206
     2.2670   2.2670   3.7573   3.7573   3.8933   3.8933   4.7515   4.7515
     8.5569   8.5569   9.1793   9.1793  10.1070  10.1070  10.2131  10.2131
    10.7479  10.7479  11.3189  11.3189  12.2798  12.2798  13.2434  13.2434
    13.4454  13.4454  14.5983  14.5983  16.2498  16.2498  16.3286  16.3286
    16.6223  16.6223  18.9352  18.9352  18.9823  18.9823  19.7674  19.7675

          k = 0.1250 0.3750 0.3750 (  3778 PWs)   bands (ev):

    -4.4230  -3.4548  -3.4548  -2.7481  -0.3659   0.4325   0.4326   1.6410
     2.2523   2.9247   2.9247   3.9326   4.3079   4.3080   4.3492   5.4590
     8.1011   8.9894   9.1282   9.1282   9.8045   9.8045   9.9182  10.0985
    11.2692  11.2692  11.7115  11.7203  12.1767  12.1767  12.5550  12.7129
    13.2076  14.2210  14.2710  15.2682  15.2682  15.9784  15.9784  16.1081
    16.3272  18.2622  18.2622  18.6927  18.8415  19.1943  19.1943  20.2514

          k = 0.1250 0.3750-0.5000 (  3764 PWs)   bands (ev):

    -3.9903  -3.9902  -3.1176  -3.1176  -0.0171  -0.0171   1.0072   1.0072
     2.5444   2.5445   3.4027   3.4027   4.4401   4.4401   5.0005   5.0005
     8.7253   8.7253   9.1832   9.1832   9.6134   9.6135  10.3545  10.3545
    10.9897  10.9897  11.8816  11.8816  11.9414  11.9415  12.6890  12.6890
    13.8739  13.8739  14.5806  14.5806  14.7393  14.7393  16.3424  16.3424
    17.7175  17.7176  18.3547  18.3547  18.4202  18.4202  20.3863  20.3864

          k = 0.1250-0.5000-0.5000 (  3788 PWs)   bands (ev):

    -3.5928  -3.5928  -3.5928  -3.5927   0.4523   0.4523   0.4523   0.4524
     2.9335   2.9335   2.9335   2.9336   4.9243   4.9244   4.9244   4.9244
     8.7184   8.7184   8.7184   8.7184  10.6619  10.6619  10.6619  10.6619
    10.6751  10.6751  10.6751  10.6751  13.1846  13.1846  13.1846  13.1846
    13.2346  13.2347  13.2347  13.2347  15.7589  15.7589  15.7589  15.7589
    17.9920  17.9920  17.9920  17.9920  19.2109  19.2109  19.2109  19.2109

          k = 0.2500 0.2500 0.2500 (  3785 PWs)   bands (ev):

    -4.8737  -2.9540  -2.9540  -2.9540  -0.1060  -0.1060  -0.1059   2.3343
     2.7109   2.7109   2.7110   4.0313   4.0313   4.0313   5.4733   5.4733
     7.7751   7.7751   7.7751   8.3104   9.7456   9.7456  10.6916  10.6916
    10.6916  12.0012  12.0012  12.0012  12.1579  12.1579  12.1579  13.1881
    13.4365  13.4365  15.2611  16.4579  16.4579  16.4579  16.7803  16.7803
    16.7803  18.1048  18.4115  18.4115  18.4115  18.9641  18.9641  18.9641

          k = 0.2500 0.2500 0.3750 (  3789 PWs)   bands (ev):

    -4.5540  -3.5744  -2.8486  -2.8486  -0.3954  -0.3954   0.4169   1.6204
     2.7585   2.7585   3.5190   4.1015   4.1015   4.2968   5.0578   5.1906
     8.1323   8.3246   8.3246   8.4777   9.5320  10.1615  10.6239  10.6239
    10.8473  11.1375  11.3692  12.0249  12.0249  12.1713  12.1713  12.4928
    14.3863  14.4946  15.0363  15.0363  15.4089  16.3778  16.7615  16.7615
    16.8721  17.5767  18.1741  18.1741  18.2719  18.7720  18.7720  19.0394

          k = 0.2500 0.2500-0.5000 (  3758 PWs)   bands (ev):

    -4.1164  -4.1164  -2.7996  -2.7995  -0.5153  -0.5153   0.9825   0.9825
     2.7983   2.7984   4.0779   4.0779   4.4116   4.4116   4.6484   4.6485
     8.5052   8.5053   9.3282   9.3282   9.3740   9.3740   9.8974   9.8974
    10.7029  10.7029  11.7130  11.7131  12.1550  12.1550  13.3586  13.3586
    13.6446  13.6447  15.5632  15.5632  15.6027  15.6027  16.2223  16.2223
    16.8255  16.8255  17.9540  17.9541  18.6697  18.6697  19.6576  19.6577

          k = 0.2500 0.3750 0.3750 (  3777 PWs)   bands (ev):

    -4.2517  -3.3604  -3.3604  -2.9326  -0.5413  -0.0756  -0.0756   0.9487
     3.0428   3.5230   3.5230   4.4604   4.4604   4.4768   4.7030   5.3399
     8.2845   8.3695   8.6171   8.6171   9.7162   9.8624   9.8624   9.8742
    10.6641  10.9658  11.1405  11.1405  12.4031  12.4031  13.3601  13.5955
    13.6269  15.1654  15.1829  15.4225  15.6559  15.6560  15.8913  16.4067
    16.4067  17.6072  17.6072  17.7703  18.6741  18.6741  19.2304  19.2304

          k = 0.2500 0.3750-0.5000 (  3762 PWs)   bands (ev):

    -3.8454  -3.8454  -3.1217  -3.1216  -0.4253  -0.4253   0.3765   0.3765
     3.3247   3.3247   4.1878   4.1878   4.5694   4.5694   4.9678   4.9678
     8.6724   8.6725   8.8108   8.8108   9.5136   9.5136   9.6301   9.6301
    10.3316  10.3316  11.0092  11.0092  12.9173  12.9174  13.8054  13.8055
    14.6623  14.6624  14.8263  14.8263  15.6400  15.6400  15.6882  15.6882
    17.2528  17.2528  17.4283  17.4283  18.5006  18.5006  19.3325  19.3326

          k = 0.2500-0.5000-0.5000 (  3772 PWs)   bands (ev):

    -3.4977  -3.4977  -3.4977  -3.4976  -0.1107  -0.1107  -0.1107  -0.1107
     3.7843   3.7843   3.7843   3.7844   4.9686   4.9686   4.9687   4.9687
     8.6301   8.6301   8.6301   8.6301   9.8698   9.8698   9.8698   9.8698
    10.1088  10.1088  10.1088  10.1088  14.1642  14.1643  14.1643  14.1643
    14.3363  14.3363  14.3363  14.3363  15.4615  15.4615  15.4615  15.4615
    17.4502  17.4502  17.4502  17.4502  18.7040  18.7040  18.7040  18.7040

          k = 0.3750 0.3750 0.3750 (  3767 PWs)   bands (ev):

    -3.9786  -3.2518  -3.2518  -3.2517  -0.4823  -0.4823  -0.4823   0.3177
     3.9668   3.9668   3.9669   4.6728   4.6728   4.6728   5.1470   5.1470
     7.9531   8.4589   8.4589   8.4589   9.6912   9.6912   9.7661   9.7661
     9.7661  10.3400  10.3400  10.3400  13.6145  13.6145  13.6145  14.1335
    14.8232  14.8232  15.2450  15.2450  15.2450  15.9590  16.7235  16.7236
    16.7236  17.7996  17.7996  17.7996  17.9059  17.9059  17.9059  18.7981

          k = 0.3750 0.3750-0.5000 (  3780 PWs)   bands (ev):

    -3.6286  -3.6286  -3.2011  -3.2011  -0.6379  -0.6379  -0.1769  -0.1768
     4.1141   4.1142   4.7807   4.7807   4.8011   4.8011   4.9097   4.9097
     8.2105   8.2106   8.5706   8.5706   9.4142   9.4142   9.4985   9.4985
     9.9035   9.9035  10.2026  10.2027  13.9082  13.9083  14.3682  14.3682
    14.9143  14.9144  15.1176  15.1176  16.1126  16.1126  16.1798  16.1798
    17.0276  17.0276  17.6914  17.6914  17.9729  17.9729  18.4458  18.4458

          k = 0.3750-0.5000-0.5000 (  3780 PWs)   bands (ev):

    -3.3882  -3.3882  -3.3882  -3.3881  -0.5436  -0.5436  -0.5436  -0.5436
     4.6247   4.6247   4.6247   4.6248   5.0152   5.0152   5.0153   5.0153
     8.1691   8.1691   8.1691   8.1691   9.5875   9.5875   9.5875   9.5875
     9.7186   9.7186   9.7186   9.7186  14.1808  14.1808  14.1808  14.1808
    15.6484  15.6484  15.6484  15.6484  16.0446  16.0446  16.0446  16.0446
    17.4685  17.4685  17.4685  17.4685  18.1010  18.1010  18.1010  18.1010

          k =-0.5000-0.5000-0.5000 (  3840 PWs)   bands (ev):

    -3.3373  -3.3373  -3.3373  -3.3372  -0.7068  -0.7068  -0.7068  -0.7068
     5.0353   5.0353   5.0353   5.0353   5.0353   5.0353   5.0353   5.0353
     7.8270   7.8270   7.8270   7.8270   9.5802   9.5802   9.5802   9.5803
     9.5803   9.5803   9.5803   9.5803  13.9806  13.9806  13.9806  13.9806
    16.7883  16.7883  16.7883  16.7883  16.7883  16.7883  16.7883  16.7883
    17.5971  17.5971  17.5971  17.5971  17.5971  17.5973  17.6044  17.6068

     the Fermi energy is     6.4258 ev

!    total energy              =     -62.96546343 Ry
     Harris-Foulkes estimate   =     -62.96546269 Ry
     estimated scf accuracy    <       0.00000039 Ry

     The total energy is the sum of the following terms:

     one-electron contribution =      19.10492589 Ry
     hartree contribution      =       4.37646517 Ry
     xc contribution           =     -19.25107985 Ry
     ewald contribution        =     -67.19577464 Ry

     convergence has been achieved in   4 iterations

     Writing output data file bulk_Si.save/

     init_run     :      0.79s CPU      1.21s WALL (       1 calls)
     electrons    :     11.85s CPU     12.95s WALL (       1 calls)

     Called by init_run:
     wfcinit      :      0.47s CPU      0.74s WALL (       1 calls)
     potinit      :      0.05s CPU      0.06s WALL (       1 calls)
     hinit0       :      0.03s CPU      0.15s WALL (       1 calls)

     Called by electrons:
     c_bands      :     11.14s CPU     12.13s WALL (       5 calls)
     sum_band     :      0.59s CPU      0.61s WALL (       5 calls)
     v_of_rho     :      0.12s CPU      0.14s WALL (       5 calls)
     mix_rho      :      0.00s CPU      0.01s WALL (       5 calls)

     Called by c_bands:
     init_us_2    :      0.04s CPU      0.05s WALL (     385 calls)
     cegterg      :     11.03s CPU     11.99s WALL (     175 calls)

     Called by sum_band:

     Called by *egterg:
     h_psi        :      1.70s CPU      1.92s WALL (     891 calls)
     g_psi        :      0.03s CPU      0.03s WALL (     681 calls)
     cdiaghg      :      5.13s CPU      5.73s WALL (     821 calls)

     Called by h_psi:
     h_psi:pot    :      1.68s CPU      1.89s WALL (     891 calls)
     h_psi:calbec :      0.18s CPU      0.23s WALL (     891 calls)
     vloc_psi     :      1.39s CPU      1.55s WALL (     891 calls)
     add_vuspsi   :      0.11s CPU      0.11s WALL (     891 calls)

     General routines
     calbec       :      0.18s CPU      0.23s WALL (     891 calls)
     fft          :      0.04s CPU      0.17s WALL (      58 calls)
     ffts         :      0.00s CPU      0.00s WALL (      10 calls)
     fftw         :      1.55s CPU      1.71s WALL (   14324 calls)
     interpolate  :      0.00s CPU      0.01s WALL (       5 calls)

     Parallel routines
     fft_scatt_xy :      0.18s CPU      0.19s WALL (   14392 calls)
     fft_scatt_yz :      0.67s CPU      0.77s WALL (   14392 calls)

     PWSCF        :     12.94s CPU     17.27s WALL


   This run was terminated on:  21:30:20  31Oct2020            

=------------------------------------------------------------------------------=
   JOB DONE.
=------------------------------------------------------------------------------=
