 vasp.5.4.1 05Feb16 (build Jun 14 2018 09:35:56) complex                        
  
 executed on           IFC91_ompi date 2022.04.18  16:45:04
 running on   16 total cores
 distrk:  each k-point on   16 cores,    1 groups
 distr:  one band on NCORES_PER_BAND=   1 cores,   16 groups


--------------------------------------------------------------------------------------------------------


 INCAR:
 POTCAR:   PAW_PBE Si 05Jan2001                   

 ----------------------------------------------------------------------------- 
|                                                                             |
|           W    W    AA    RRRRR   N    N  II  N    N   GGGG   !!!           |
|           W    W   A  A   R    R  NN   N  II  NN   N  G    G  !!!           |
|           W    W  A    A  R    R  N N  N  II  N N  N  G       !!!           |
|           W WW W  AAAAAA  RRRRR   N  N N  II  N  N N  G  GGG   !            |
|           WW  WW  A    A  R   R   N   NN  II  N   NN  G    G                |
|           W    W  A    A  R    R  N    N  II  N    N   GGGG   !!!           |
|                                                                             |
|      For optimal performance we recommend to set                            |
|        NCORE= 4 - approx SQRT( number of cores)                             |
|      NCORE specifies how many cores store one orbital (NPAR=cpu/NCORE).     |
|      This setting can  greatly improve the performance of VASP for DFT.     |
|      The default, NPAR=number of cores might be grossly inefficient         |
|      on modern multi-core architectures or massively parallel machines.     |
|      Do your own testing !!!!                                               |
|      Unfortunately you need to use the default for GW and RPA calculations. |
|      (for HF NCORE is supported but not extensively tested yet)             |
|                                                                             |
 ----------------------------------------------------------------------------- 

 POTCAR:   PAW_PBE Si 05Jan2001                   
   VRHFIN =Si: s2p2                                                             
   LEXCH  = PE                                                                  
   EATOM  =   103.0669 eV,    7.5752 Ry                                         
                                                                                
   TITEL  = PAW_PBE Si 05Jan2001                                                
   LULTRA =        F    use ultrasoft PP ?                                      
   IUNSCR =        1    unscreen: 0-lin 1-nonlin 2-no                           
   RPACOR =    1.500    partial core radius                                     
   POMASS =   28.085; ZVAL   =    4.000    mass and valenz                      
   RCORE  =    1.900    outmost cutoff radius                                   
   RWIGS  =    2.480; RWIGS  =    1.312    wigner-seitz radius (au A)           
   ENMAX  =  245.345; ENMIN  =  184.009 eV                                      
   ICORE  =        2    local potential                                         
   LCOR   =        T    correct aug charges                                     
   LPAW   =        T    paw PP                                                  
   EAUG   =  322.069                                                            
   DEXC   =    -.007                                                            
   RMAX   =    2.944    core radius for proj-oper                               
   RAUG   =    1.300    factor for augmentation sphere                          
   RDEP   =    1.993    radius for radial grids                                 
   QCUT   =   -4.246; QGAM   =    8.493    optimization parameters              
                                                                                
   Description                                                                  
     l     E      TYP  RCUT    TYP  RCUT                                        
     0   .000     23  1.900                                                     
     0   .000     23  1.900                                                     
     1   .000     23  1.900                                                     
     1   .000     23  1.900                                                     
     2   .000      7  1.900                                                     
  local pseudopotential read in
  partial core-charges read in
  atomic valenz-charges read in
  non local Contribution for L=           0  read in
    real space projection operators read in
  non local Contribution for L=           0  read in
    real space projection operators read in
  non local Contribution for L=           1  read in
    real space projection operators read in
  non local Contribution for L=           1  read in
    real space projection operators read in
    PAW grid and wavefunctions read in
 
   number of l-projection  operators is LMAX  =           4
   number of lm-projection operators is LMMAX =           8
 
 PAW_PBE Si 05Jan2001                   :
 energy of atom  1       EATOM= -103.0669
 kinetic energy error for atom=    0.0056 (will be added to EATOM!!)
 
 
 POSCAR: Si ! Bulk Si, Supercell                 
  positions in direct lattice
  No initial velocities read in
 exchange correlation table for  LEXCH =        8
   RHO(1)=    0.500       N(1)  =     2000
   RHO(2)=  100.500       N(2)  =     4000
 


--------------------------------------------------------------------------------------------------------


 ion  position               nearest neighbor table
   1  0.000  0.000  0.000-   5 2.35   6 2.35   7 2.35   8 2.35
   2  0.000  0.500  0.500-   5 2.35   6 2.35   7 2.35   8 2.35
   3  0.500  0.500  0.000-   5 2.35   6 2.35   7 2.35   8 2.35
   4  0.500  0.000  0.500-   5 2.35   6 2.35   7 2.35   8 2.35
   5  0.750  0.250  0.750-   1 2.35   2 2.35   3 2.35   4 2.35
   6  0.250  0.250  0.250-   1 2.35   2 2.35   3 2.35   4 2.35
   7  0.250  0.750  0.750-   1 2.35   2 2.35   3 2.35   4 2.35
   8  0.750  0.750  0.250-   1 2.35   2 2.35   3 2.35   4 2.35
 
  LATTYP: Found a simple cubic cell.
 ALAT       =     5.4300000000
  
  Lattice vectors:
  
 A1 = (   5.4300000000,   0.0000000000,   0.0000000000)
 A2 = (   0.0000000000,   5.4300000000,   0.0000000000)
 A3 = (   0.0000000000,   0.0000000000,   5.4300000000)


Analysis of symmetry for initial positions (statically):
=====================================================================
 Subroutine PRICEL returns following result:
 
  LATTYP: Found a face centered cubic cell.
 ALAT       =     5.4300000000
  
  Lattice vectors:
  
 A1 = (   2.7150000000,   2.7150000000,   0.0000000000)
 A2 = (   2.7150000000,   0.0000000000,  -2.7150000000)
 A3 = (   0.0000000000,   2.7150000000,  -2.7150000000)
 
   4 primitive cells build up your supercell.
 

 Routine SETGRP: Setting up the symmetry group for a 
 simple cubic supercell.


 Subroutine GETGRP returns: Found 48 space group operations
 (whereof 24 operations were pure point group operations)
 out of a pool of 48 trial point group operations.


The static configuration has the point symmetry T_d .
 The point group associated with its full space group is O_h .


Analysis of symmetry for dynamics (positions and initial velocities):
=====================================================================
 Subroutine PRICEL returns following result:
 
  LATTYP: Found a face centered cubic cell.
 ALAT       =     5.4300000000
  
  Lattice vectors:
  
 A1 = (   2.7150000000,   2.7150000000,   0.0000000000)
 A2 = (   2.7150000000,   0.0000000000,  -2.7150000000)
 A3 = (   0.0000000000,   2.7150000000,  -2.7150000000)
 
   4 primitive cells build up your supercell.
 

 Routine SETGRP: Setting up the symmetry group for a 
 simple cubic supercell.


 Subroutine GETGRP returns: Found 48 space group operations
 (whereof 24 operations were pure point group operations)
 out of a pool of 48 trial point group operations.


The dynamic configuration has the point symmetry T_d .
 The point group associated with its full space group is O_h .


Analysis of structural, dynamic, and magnetic symmetry:
=====================================================================
 Subroutine PRICEL returns following result:
 
  LATTYP: Found a face centered cubic cell.
 ALAT       =     5.4300000000
  
  Lattice vectors:
  
 A1 = (   2.7150000000,   2.7150000000,   0.0000000000)
 A2 = (   2.7150000000,   0.0000000000,  -2.7150000000)
 A3 = (   0.0000000000,   2.7150000000,  -2.7150000000)
 
   4 primitive cells build up your supercell.
 

 Routine SETGRP: Setting up the symmetry group for a 
 simple cubic supercell.


 Subroutine GETGRP returns: Found  6 space group operations
 (whereof  3 operations were pure point group operations)
 out of a pool of 48 trial point group operations.


The (compounded) configuration has the point symmetry C_3 .
 The point group associated with its full space group is S_6 .


 Subroutine INISYM returns: Found  6 space group operations
 (whereof  3 operations are pure point group operations),
 and found     4 'primitive' translations

 
 
 KPOINTS: Kpoints needed for unfolding on the path
  k-points in reciprocal lattice
Space group operators:
 irot       det(A)        alpha          n_x          n_y          n_z        tau_x        tau_y        tau_z
    1     1.000000     0.000001     1.000000     0.000000     0.000000     0.000000     0.000000     0.000000
    2     1.000000   120.000000    -0.577350    -0.577350    -0.577350     0.000000     0.000000     0.000000
    3     1.000000   120.000000     0.577350     0.577350     0.577350     0.000000     0.000000     0.000000
    4    -1.000000     0.000001     1.000000     0.000000     0.000000     0.750000     0.750000    -0.750000
    5    -1.000000   120.000000    -0.577350    -0.577350    -0.577350     0.750000     0.750000    -0.750000
    6    -1.000000   120.000000     0.577350     0.577350     0.577350     0.750000     0.750000    -0.750000


--------------------------------------------------------------------------------------------------------




 Dimension of arrays:
   k-points           NKPTS =     84   k-points in BZ     NKDIM =     84   number of bands    NBANDS=     96
   number of dos      NEDOS =    301   number of ions     NIONS =      8
   non local maximal  LDIM  =      4   non local SUM 2l+1 LMDIM =      8
   total plane-waves  NPLWV =  13824
   max r-space proj   IRMAX =      1   max aug-charges    IRDMAX=   3086
   dimension x,y,z NGX =    24 NGY =   24 NGZ =   24
   dimension x,y,z NGXF=    48 NGYF=   48 NGZF=   48
   support grid    NGXF=    48 NGYF=   48 NGZF=   48
   ions per type =               8
 NGX,Y,Z   is equivalent  to a cutoff of   7.35,  7.35,  7.35 a.u.
 NGXF,Y,Z  is equivalent  to a cutoff of  14.70, 14.70, 14.70 a.u.


 I would recommend the setting:
   dimension x,y,z NGX =    21 NGY =   21 NGZ =   21
 SYSTEM =  Graphene                                
 POSCAR =  Si ! Bulk Si, Supercell                 

 Startparameter for this run:
   NWRITE =      2    write-flag & timer
   PREC   = normal    normal or accurate (medium, high low for compatibility)
   ISTART =      0    job   : 0-new  1-cont  2-samecut
   ICHARG =     11    charge: 1-file 2-atom 10-const
   ISPIN  =      1    spin polarized calculation?
   LNONCOLLINEAR =      T non collinear calculations
   LSORBIT =      T    spin-orbit coupling
   INIWAV =      1    electr: 0-lowe 1-rand  2-diag
   LASPH  =      F    aspherical Exc in radial PAW
   METAGGA=      F    non-selfconsistent MetaGGA calc.

 Electronic Relaxation 1
   ENCUT  =  245.3 eV  18.03 Ry    4.25 a.u.   6.93  6.93  6.93*2*pi/ulx,y,z
   ENINI  =  245.3     initial cutoff
   ENAUG  =  322.1 eV  augmentation charge cutoff
   NELM   =     60;   NELMIN=  2; NELMDL= -5     # of ELM steps 
   EDIFF  = 0.1E-06   stopping-criterion for ELM
   LREAL  =      F    real-space projection
   NLSPLINE    = F    spline interpolate recip. space projectors
   LCOMPAT=      F    compatible to vasp.4.4
   GGA_COMPAT  = T    GGA compatible to vasp.4.4-vasp.4.6
   LMAXPAW     = -100 max onsite density
   LMAXMIX     =    2 max onsite mixed and CHGCAR
   VOSKOWN=      0    Vosko Wilk Nusair interpolation
   ROPT   =    0.00000
 Ionic relaxation
   EDIFFG = 0.1E-05   stopping-criterion for IOM
   NSW    =      0    number of steps for IOM
   NBLOCK =      1;   KBLOCK =      1    inner block; outer block 
   IBRION =     -1    ionic relax: 0-MD 1-quasi-New 2-CG
   NFREE  =      0    steps in history (QN), initial steepest desc. (CG)
   ISIF   =      2    stress and relaxation
   IWAVPR =     10    prediction:  0-non 1-charg 2-wave 3-comb
   ISYM   =      2    0-nonsym 1-usesym 2-fastsym
   LCORR  =      T    Harris-Foulkes like correction to forces

   POTIM  = 0.5000    time-step for ionic-motion
   TEIN   =    0.0    initial temperature
   TEBEG  =    0.0;   TEEND  =   0.0 temperature during run
   SMASS  =  -3.00    Nose mass-parameter (am)
   estimated Nose-frequenzy (Omega)   =  0.10E-29 period in steps =****** mass=  -0.674E-27a.u.
   SCALEE = 1.0000    scale energy and forces
   NPACO  =    256;   APACO  = 16.0  distance and # of slots for P.C.
   PSTRESS=    0.0 pullay stress

  Mass of Ions in am
   POMASS =  28.09
  Ionic Valenz
   ZVAL   =   4.00
  Atomic Wigner-Seitz radii
   RWIGS  =  -1.00
  virtual crystal weights 
   VCA    =   1.00
   NELECT =      32.0000    total number of electrons
   NUPDOWN=      -1.0000    fix difference up-down

 DOS related values:
   EMIN   =  10.00;   EMAX   =-10.00  energy-range for DOS
   EFERMI =   0.00
   ISMEAR =     0;   SIGMA  =   0.03  broadening in eV -4-tet -1-fermi 0-gaus

 Electronic relaxation 2 (details)
   IALGO  =     68    algorithm
   LDIAG  =      T    sub-space diagonalisation (order eigenvalues)
   LSUBROT=      F    optimize rotation matrix (better conditioning)
   TURBO    =      0    0=normal 1=particle mesh
   IRESTART =      0    0=no restart 2=restart with 2 vectors
   NREBOOT  =      0    no. of reboots
   NMIN     =      0    reboot dimension
   EREF     =   0.00    reference energy to select bands
   IMIX   =      4    mixing-type and parameters
     AMIX     =   0.40;   BMIX     =  1.00
     AMIX_MAG =   1.60;   BMIX_MAG =  1.00
     AMIN     =   0.10
     WC   =   100.;   INIMIX=   1;  MIXPRE=   1;  MAXMIX= -45

 Intra band minimization:
   WEIMIN = 0.0000     energy-eigenvalue tresh-hold
   EBREAK =  0.26E-09  absolut break condition
   DEPER  =   0.30     relativ break condition  

   TIME   =   0.40     timestep for ELM

  volume/ion in A,a.u.               =      20.01       135.05
  Fermi-wavevector in a.u.,A,eV,Ry     =   0.957176  1.808800 12.465458  0.916185
  Thomas-Fermi vector in A             =   2.086170
 
 Write flags
   LWAVE  =      T    write WAVECAR
   LCHARG =      F    write CHGCAR
   LVTOT  =      F    write LOCPOT, total local potential
   LVHAR  =      F    write LOCPOT, Hartree potential only
   LELF   =      F    write electronic localiz. function (ELF)
   LORBIT =      0    0 simple, 1 ext, 2 COOP (PROOUT)


 Dipole corrections
   LMONO  =      F    monopole corrections only (constant potential shift)
   LDIPOL =      F    correct potential (dipole corrections)
   IDIPOL =      0    1-x, 2-y, 3-z, 4-all directions 
   EPSILON=  1.0000000 bulk dielectric constant

 Exchange correlation treatment:
   GGA     =    --    GGA type
   LEXCH   =     8    internal setting for exchange type
   VOSKOWN=      0    Vosko Wilk Nusair interpolation
   LHFCALC =     F    Hartree Fock is set to
   LHFONE  =     F    Hartree Fock one center treatment
   AEXX    =    0.0000 exact exchange contribution

 Linear response parameters
   LEPSILON=     F    determine dielectric tensor
   LRPA    =     F    only Hartree local field effects (RPA)
   LNABLA  =     F    use nabla operator in PAW spheres
   LVEL    =     F    velocity operator in full k-point grid
   LINTERFAST=   F  fast interpolation
   KINTER  =     0    interpolate to denser k-point grid
   CSHIFT  =0.1000    complex shift for real part using Kramers Kronig
   OMEGAMAX=  -1.0    maximum frequency
   DEG_THRESHOLD= 0.2000000E-02 threshold for treating states as degnerate
   RTIME   =    0.100 relaxation time in fs

 Orbital magnetization related:
   ORBITALMAG=     F  switch on orbital magnetization
   LCHIMAG   =     F  perturbation theory with respect to B field
   DQ        =  0.001000  dq finite difference perturbation B field



--------------------------------------------------------------------------------------------------------


 Static calculation
 charge density and potential remain constant during run
 non collinear spin polarized calculation
 RMM-DIIS sequential band-by-band and
  variant of blocked Davidson during initial phase
 perform sub-space diagonalisation
    before iterative eigenvector-optimisation
 no mixing
 using additional bands           80
 reciprocal scheme for non local part
 use partial core corrections
 calculate Harris-corrections to forces 
   (improved forces if not selfconsistent)
 use gradient corrections 
 WARNING: stress and forces are not correct
  (second derivative of E(xc) not defined)
 use of overlap-Matrix (Vanderbilt PP)
 Gauss-broadening in eV      SIGMA  =   0.03


--------------------------------------------------------------------------------------------------------


  energy-cutoff  :      245.34
  volume of cell :      160.10
      direct lattice vectors                 reciprocal lattice vectors
     5.430000000  0.000000000  0.000000000     0.184162063  0.000000000  0.000000000
     0.000000000  5.430000000  0.000000000     0.000000000  0.184162063  0.000000000
     0.000000000  0.000000000  5.430000000     0.000000000  0.000000000  0.184162063

  length of vectors
     5.430000000  5.430000000  5.430000000     0.184162063  0.184162063  0.184162063


 
 k-points in units of 2pi/SCALE and weight: Kpoints needed for unfolding on the path
   0.00000000  0.00000000  0.00000000       0.012
   0.00000000  0.03846154  0.00000000       0.012
   0.00000000  0.07692308  0.00000000       0.012
   0.00000000  0.11538462  0.00000000       0.012
   0.00000000  0.15384615  0.00000000       0.012
   0.00000000  0.19230769  0.00000000       0.012
   0.00000000  0.23076923  0.00000000       0.012
   0.00000000  0.26923077  0.00000000       0.012
   0.00000000  0.30769231  0.00000000       0.012
   0.00000000  0.34615385  0.00000000       0.012
   0.00000000  0.38461538  0.00000000       0.012
   0.00000000  0.42307692  0.00000000       0.012
   0.00000000  0.46153846  0.00000000       0.012
   0.00000000  0.50000000  0.00000000       0.012
   0.00000000  0.53846154  0.00000000       0.012
   0.00000000  0.57692308  0.00000000       0.012
   0.00000000  0.61538462  0.00000000       0.012
   0.00000000  0.65384615  0.00000000       0.012
   0.00000000  0.69230769  0.00000000       0.012
   0.00000000  0.73076923  0.00000000       0.012
   0.00000000  0.76923077  0.00000000       0.012
   0.00000000  0.80769231  0.00000000       0.012
   0.00000000  0.84615385  0.00000000       0.012
   0.00000000  0.88461538  0.00000000       0.012
   0.00000000  0.92307692  0.00000000       0.012
   0.00000000  0.96153846  0.00000000       0.012
   0.02272727  0.02272727  0.02272727       0.012
   0.02678571  0.02678571  0.00000000       0.012
   0.03125000  0.00000000  0.03125000       0.012
   0.04545455  0.04545455  0.04545455       0.012
   0.05357143  0.05357143  0.00000000       0.012
   0.06250000  0.00000000  0.06250000       0.012
   0.06818182  0.06818182  0.06818182       0.012
   0.08035714  0.08035714  0.00000000       0.012
   0.09090909  0.09090909  0.09090909       0.012
   0.09375000  0.00000000  0.09375000       0.012
   0.10714286  0.10714286  0.00000000       0.012
   0.11363636  0.11363636  0.11363636       0.012
   0.12500000  0.00000000  0.12500000       0.012
   0.13392857  0.13392857  0.00000000       0.012
   0.13636364  0.13636364  0.13636364       0.012
   0.15625000  0.00000000  0.15625000       0.012
   0.15909091  0.15909091  0.15909091       0.012
   0.16071429  0.16071429  0.00000000       0.012
   0.18181818  0.18181818  0.18181818       0.012
   0.18750000  0.00000000  0.18750000       0.012
   0.18750000  0.18750000  0.00000000       0.012
   0.20454545  0.20454545  0.20454545       0.012
   0.21428571  0.21428571  0.00000000       0.012
   0.21875000  0.00000000  0.21875000       0.012
   0.22727273  0.22727273  0.22727273       0.012
   0.24107143  0.24107143  0.00000000       0.012
   0.25000000  0.00000000  0.25000000       0.012
   0.25000000  0.25000000  0.25000000       0.012
   0.26785714  0.26785714  0.00000000       0.012
   0.27272727  0.27272727  0.27272727       0.012
   0.29464286  0.29464286  0.00000000       0.012
   0.29545455  0.29545455  0.29545455       0.012
   0.31818182  0.31818182  0.31818182       0.012
   0.32142857  0.32142857  0.00000000       0.012
   0.34090909  0.34090909  0.34090909       0.012
   0.34821429  0.34821429  0.00000000       0.012
   0.36363636  0.36363636  0.36363636       0.012
   0.37500000  0.37500000  0.00000000       0.012
   0.38636364  0.38636364  0.38636364       0.012
   0.40178571  0.40178571  0.00000000       0.012
   0.40909091  0.40909091  0.40909091       0.012
   0.42857143  0.42857143  0.00000000       0.012
   0.43181818  0.43181818  0.43181818       0.012
   0.45454545  0.45454545  0.45454545       0.012
   0.45535714  0.45535714  0.00000000       0.012
   0.47727273  0.47727273  0.47727273       0.012
   0.48214286  0.48214286  0.00000000       0.012
   0.50000000  0.50000000  0.50000000       0.012
   0.50892857  0.50892857  0.00000000       0.012
   0.53571429  0.53571429  0.00000000       0.012
   0.56250000  0.56250000  0.00000000       0.012
   0.58928571  0.58928571  0.00000000       0.012
   0.61607143  0.61607143  0.00000000       0.012
   0.64285714  0.64285714  0.00000000       0.012
   0.66964286  0.66964286  0.00000000       0.012
   0.69642857  0.69642857  0.00000000       0.012
   0.72321429  0.72321429  0.00000000       0.012
   0.75000000  0.75000000  0.00000000       0.012
 
 k-points in reciprocal lattice and weights: Kpoints needed for unfolding on the path
   0.00000000  0.00000000  0.00000000       0.012
   0.00000000  0.03846154  0.00000000       0.012
   0.00000000  0.07692308  0.00000000       0.012
   0.00000000  0.11538462  0.00000000       0.012
   0.00000000  0.15384615  0.00000000       0.012
   0.00000000  0.19230769  0.00000000       0.012
   0.00000000  0.23076923  0.00000000       0.012
   0.00000000  0.26923077  0.00000000       0.012
   0.00000000  0.30769231  0.00000000       0.012
   0.00000000  0.34615385  0.00000000       0.012
   0.00000000  0.38461538  0.00000000       0.012
   0.00000000  0.42307692  0.00000000       0.012
   0.00000000  0.46153846  0.00000000       0.012
   0.00000000  0.50000000  0.00000000       0.012
   0.00000000  0.53846154  0.00000000       0.012
   0.00000000  0.57692308  0.00000000       0.012
   0.00000000  0.61538462  0.00000000       0.012
   0.00000000  0.65384615  0.00000000       0.012
   0.00000000  0.69230769  0.00000000       0.012
   0.00000000  0.73076923  0.00000000       0.012
   0.00000000  0.76923077  0.00000000       0.012
   0.00000000  0.80769231  0.00000000       0.012
   0.00000000  0.84615385  0.00000000       0.012
   0.00000000  0.88461538  0.00000000       0.012
   0.00000000  0.92307692  0.00000000       0.012
   0.00000000  0.96153846  0.00000000       0.012
   0.02272727  0.02272727  0.02272727       0.012
   0.02678571  0.02678571  0.00000000       0.012
   0.03125000  0.00000000  0.03125000       0.012
   0.04545455  0.04545455  0.04545455       0.012
   0.05357143  0.05357143  0.00000000       0.012
   0.06250000  0.00000000  0.06250000       0.012
   0.06818182  0.06818182  0.06818182       0.012
   0.08035714  0.08035714  0.00000000       0.012
   0.09090909  0.09090909  0.09090909       0.012
   0.09375000  0.00000000  0.09375000       0.012
   0.10714286  0.10714286  0.00000000       0.012
   0.11363636  0.11363636  0.11363636       0.012
   0.12500000  0.00000000  0.12500000       0.012
   0.13392857  0.13392857  0.00000000       0.012
   0.13636364  0.13636364  0.13636364       0.012
   0.15625000  0.00000000  0.15625000       0.012
   0.15909091  0.15909091  0.15909091       0.012
   0.16071429  0.16071429  0.00000000       0.012
   0.18181818  0.18181818  0.18181818       0.012
   0.18750000  0.00000000  0.18750000       0.012
   0.18750000  0.18750000  0.00000000       0.012
   0.20454545  0.20454545  0.20454545       0.012
   0.21428571  0.21428571  0.00000000       0.012
   0.21875000  0.00000000  0.21875000       0.012
   0.22727273  0.22727273  0.22727273       0.012
   0.24107143  0.24107143  0.00000000       0.012
   0.25000000  0.00000000  0.25000000       0.012
   0.25000000  0.25000000  0.25000000       0.012
   0.26785714  0.26785714  0.00000000       0.012
   0.27272727  0.27272727  0.27272727       0.012
   0.29464286  0.29464286  0.00000000       0.012
   0.29545455  0.29545455  0.29545455       0.012
   0.31818182  0.31818182  0.31818182       0.012
   0.32142857  0.32142857  0.00000000       0.012
   0.34090909  0.34090909  0.34090909       0.012
   0.34821429  0.34821429  0.00000000       0.012
   0.36363636  0.36363636  0.36363636       0.012
   0.37500000  0.37500000  0.00000000       0.012
   0.38636364  0.38636364  0.38636364       0.012
   0.40178571  0.40178571  0.00000000       0.012
   0.40909091  0.40909091  0.40909091       0.012
   0.42857143  0.42857143  0.00000000       0.012
   0.43181818  0.43181818  0.43181818       0.012
   0.45454545  0.45454545  0.45454545       0.012
   0.45535714  0.45535714  0.00000000       0.012
   0.47727273  0.47727273  0.47727273       0.012
   0.48214286  0.48214286  0.00000000       0.012
   0.50000000  0.50000000  0.50000000       0.012
   0.50892857  0.50892857  0.00000000       0.012
   0.53571429  0.53571429  0.00000000       0.012
   0.56250000  0.56250000  0.00000000       0.012
   0.58928571  0.58928571  0.00000000       0.012
   0.61607143  0.61607143  0.00000000       0.012
   0.64285714  0.64285714  0.00000000       0.012
   0.66964286  0.66964286  0.00000000       0.012
   0.69642857  0.69642857  0.00000000       0.012
   0.72321429  0.72321429  0.00000000       0.012
   0.75000000  0.75000000  0.00000000       0.012
 
 position of ions in fractional coordinates (direct lattice) 
   0.00000000  0.00000000  0.00000000
   0.00000000  0.50000000  0.50000000
   0.50000000  0.50000000  0.00000000
   0.50000000  0.00000000  0.50000000
   0.75000000  0.25000000  0.75000000
   0.25000000  0.25000000  0.25000000
   0.25000000  0.75000000  0.75000000
   0.75000000  0.75000000  0.25000000
 
 position of ions in cartesian coordinates  (Angst):
   0.00000000  0.00000000  0.00000000
   0.00000000  2.71500000  2.71500000
   2.71500000  2.71500000  0.00000000
   2.71500000  0.00000000  2.71500000
   4.07250000  1.35750000  4.07250000
   1.35750000  1.35750000  1.35750000
   1.35750000  4.07250000  4.07250000
   4.07250000  4.07250000  1.35750000
 
 Euler angles ALPHA=     0.0000000  BETA=     0.0000000

 transformation matrix from SAXIS to cartesian coordinates
 ---------------------------------------------------------
     1.0000000 m_x     0.0000000 m_y     0.0000000 m_z
     0.0000000 m_x     1.0000000 m_y     0.0000000 m_z
     0.0000000 m_x     0.0000000 m_y     1.0000000 m_z

 transformation matrix from cartesian coordinates to SAXIS
 ---------------------------------------------------------
     1.0000000 m_x     0.0000000 m_y     0.0000000 m_z
     0.0000000 m_x     1.0000000 m_y     0.0000000 m_z
     0.0000000 m_x     0.0000000 m_y     1.0000000 m_z




--------------------------------------------------------------------------------------------------------


 k-point  1 :   0.0000 0.0000 0.0000  plane waves:    2730
 k-point  2 :   0.0000 0.0385 0.0000  plane waves:    2722
 k-point  3 :   0.0000 0.0769 0.0000  plane waves:    2740
 k-point  4 :   0.0000 0.1154 0.0000  plane waves:    2740
 k-point  5 :   0.0000 0.1538 0.0000  plane waves:    2748
 k-point  6 :   0.0000 0.1923 0.0000  plane waves:    2748
 k-point  7 :   0.0000 0.2308 0.0000  plane waves:    2780
 k-point  8 :   0.0000 0.2692 0.0000  plane waves:    2804
 k-point  9 :   0.0000 0.3077 0.0000  plane waves:    2804
 k-point 10 :   0.0000 0.3462 0.0000  plane waves:    2804
 k-point 11 :   0.0000 0.3846 0.0000  plane waves:    2796
 k-point 12 :   0.0000 0.4231 0.0000  plane waves:    2796
 k-point 13 :   0.0000 0.4615 0.0000  plane waves:    2828
 k-point 14 :   0.0000 0.5000 0.0000  plane waves:    2812
 k-point 15 :   0.0000 0.5385 0.0000  plane waves:    2828
 k-point 16 :   0.0000 0.5769 0.0000  plane waves:    2796
 k-point 17 :   0.0000 0.6154 0.0000  plane waves:    2796
 k-point 18 :   0.0000 0.6538 0.0000  plane waves:    2804
 k-point 19 :   0.0000 0.6923 0.0000  plane waves:    2804
 k-point 20 :   0.0000 0.7308 0.0000  plane waves:    2804
 k-point 21 :   0.0000 0.7692 0.0000  plane waves:    2780
 k-point 22 :   0.0000 0.8077 0.0000  plane waves:    2748
 k-point 23 :   0.0000 0.8462 0.0000  plane waves:    2748
 k-point 24 :   0.0000 0.8846 0.0000  plane waves:    2740
 k-point 25 :   0.0000 0.9231 0.0000  plane waves:    2740
 k-point 26 :   0.0000 0.9615 0.0000  plane waves:    2722
 k-point 27 :   0.0227 0.0227 0.0227  plane waves:    2722
 k-point 28 :   0.0268 0.0268 0.0000  plane waves:    2726
 k-point 29 :   0.0312 0.0000 0.0312  plane waves:    2726
 k-point 30 :   0.0455 0.0455 0.0455  plane waves:    2734
 k-point 31 :   0.0536 0.0536 0.0000  plane waves:    2734
 k-point 32 :   0.0625 0.0000 0.0625  plane waves:    2742
 k-point 33 :   0.0682 0.0682 0.0682  plane waves:    2752
 k-point 34 :   0.0804 0.0804 0.0000  plane waves:    2746
 k-point 35 :   0.0909 0.0909 0.0909  plane waves:    2764
 k-point 36 :   0.0938 0.0000 0.0938  plane waves:    2754
 k-point 37 :   0.1071 0.1071 0.0000  plane waves:    2756
 k-point 38 :   0.1136 0.1136 0.1136  plane waves:    2770
 k-point 39 :   0.1250 0.0000 0.1250  plane waves:    2776
 k-point 40 :   0.1339 0.1339 0.0000  plane waves:    2776
 k-point 41 :   0.1364 0.1364 0.1364  plane waves:    2776
 k-point 42 :   0.1562 0.0000 0.1562  plane waves:    2788
 k-point 43 :   0.1591 0.1591 0.1591  plane waves:    2764
 k-point 44 :   0.1607 0.1607 0.0000  plane waves:    2796
 k-point 45 :   0.1818 0.1818 0.1818  plane waves:    2788
 k-point 46 :   0.1875 0.0000 0.1875  plane waves:    2796
 k-point 47 :   0.1875 0.1875 0.0000  plane waves:    2796
 k-point 48 :   0.2045 0.2045 0.2045  plane waves:    2794
 k-point 49 :   0.2143 0.2143 0.0000  plane waves:    2800
 k-point 50 :   0.2188 0.0000 0.2188  plane waves:    2784
 k-point 51 :   0.2273 0.2273 0.2273  plane waves:    2788
 k-point 52 :   0.2411 0.2411 0.0000  plane waves:    2784
 k-point 53 :   0.2500 0.0000 0.2500  plane waves:    2752
 k-point 54 :   0.2500 0.2500 0.2500  plane waves:    2788
 k-point 55 :   0.2679 0.2679 0.0000  plane waves:    2776
 k-point 56 :   0.2727 0.2727 0.2727  plane waves:    2812
 k-point 57 :   0.2946 0.2946 0.0000  plane waves:    2780
 k-point 58 :   0.2955 0.2955 0.2955  plane waves:    2824
 k-point 59 :   0.3182 0.3182 0.3182  plane waves:    2818
 k-point 60 :   0.3214 0.3214 0.0000  plane waves:    2768
 k-point 61 :   0.3409 0.3409 0.3409  plane waves:    2824
 k-point 62 :   0.3482 0.3482 0.0000  plane waves:    2784
 k-point 63 :   0.3636 0.3636 0.3636  plane waves:    2830
 k-point 64 :   0.3750 0.3750 0.0000  plane waves:    2800
 k-point 65 :   0.3864 0.3864 0.3864  plane waves:    2806
 k-point 66 :   0.4018 0.4018 0.0000  plane waves:    2800
 k-point 67 :   0.4091 0.4091 0.4091  plane waves:    2812
 k-point 68 :   0.4286 0.4286 0.0000  plane waves:    2804
 k-point 69 :   0.4318 0.4318 0.4318  plane waves:    2794
 k-point 70 :   0.4545 0.4545 0.4545  plane waves:    2788
 k-point 71 :   0.4554 0.4554 0.0000  plane waves:    2784
 k-point 72 :   0.4773 0.4773 0.4773  plane waves:    2752
 k-point 73 :   0.4821 0.4821 0.0000  plane waves:    2744
 k-point 74 :   0.5000 0.5000 0.5000  plane waves:    2752
 k-point 75 :   0.5089 0.5089 0.0000  plane waves:    2744
 k-point 76 :   0.5357 0.5357 0.0000  plane waves:    2772
 k-point 77 :   0.5625 0.5625 0.0000  plane waves:    2796
 k-point 78 :   0.5893 0.5893 0.0000  plane waves:    2808
 k-point 79 :   0.6161 0.6161 0.0000  plane waves:    2796
 k-point 80 :   0.6429 0.6429 0.0000  plane waves:    2784
 k-point 81 :   0.6696 0.6696 0.0000  plane waves:    2760
 k-point 82 :   0.6964 0.6964 0.0000  plane waves:    2780
 k-point 83 :   0.7232 0.7232 0.0000  plane waves:    2776
 k-point 84 :   0.7500 0.7500 0.0000  plane waves:    2752

 maximum and minimum number of plane-waves per node :      2830     2722

 maximum number of plane-waves:      2830
 maximum index in each direction: 
   IXMAX=    6   IYMAX=    6   IZMAX=    6
   IXMIN=   -7   IYMIN=   -7   IZMIN=   -7

 WARNING: aliasing errors must be expected set NGX to  28 to avoid them
 WARNING: aliasing errors must be expected set NGY to  28 to avoid them
 WARNING: aliasing errors must be expected set NGZ to  28 to avoid them
 aliasing errors are usually negligible using standard VASP settings
 and one can safely disregard these warnings

 serial   3D FFT for wavefunctions
 parallel 3D FFT for charge:
    minimum data exchange during FFTs selected (reduces bandwidth)


 total amount of memory used by VASP on root node    65824. kBytes
========================================================================

   base      :      30000. kBytes
   nonl-proj :       7837. kBytes
   fftplans  :        574. kBytes
   grid      :       3317. kBytes
   one-center:         98. kBytes
   wavefun   :      23998. kBytes
 
     INWAV:  cpu time    0.0000: real time    0.0000
 initial charge density was supplied:
 number of electron      32.0000059 magnetization       0.0000076      0.0000076      0.0000076
 keeping initial charge density in first step


--------------------------------------------------------------------------------------------------------


 Maximum index for augmentation-charges          241 (set IRDMAX)


--------------------------------------------------------------------------------------------------------


 First call to EWALD:  gamma=   0.326
 Maximum number of real-space cells 3x 3x 3
 Maximum number of reciprocal cells 3x 3x 3

 FEWALD executed in parallel
    FEWALD:  cpu time    0.0071: real time    0.0014


----------------------------------------- Iteration    1(   1)  ---------------------------------------


    POTLOK:  cpu time    0.1246: real time    0.0249
    SETDIJ:  cpu time    0.0508: real time    0.0102
     EDDAV:  cpu time    8.7833: real time    4.1521
       DOS:  cpu time    0.0035: real time    0.0018
    --------------------------------------------
      LOOP:  cpu time    8.9816: real time    4.1933

 eigenvalue-minimisations  : 16128
 total energy-change (2. order) : 0.2478228E+02  (-0.6613482E+03)
 number of electron      32.0000059 magnetization       0.0000076      0.0000076      0.0000076
 augmentation part       32.0000059 magnetization       0.0000076      0.0000076      0.0000076

 Free energy of the ion-electron system (eV)
  ---------------------------------------------------
  alpha Z        PSCENC =        13.45656811
  Ewald energy   TEWEN  =      -914.25413255
  -Hartree energ DENC   =       -59.62961906
  -exchange      EXHF   =         0.00000000
  -V(xc)+E(xc)   XCENC  =       -71.81388910
  PAW double counting   =       300.18567133     -160.36412540
  entropy T*S    EENTRO =        -0.00090310
  eigenvalues    EBANDS =        92.71241784
  atomic energy  EATOM  =       824.49028925
  Solvation  Ediel_sol  =         0.00000000
  ---------------------------------------------------
  free energy    TOTEN  =        24.78227732 eV

  energy without entropy =       24.78318042  energy(sigma->0) =       24.78272887


--------------------------------------------------------------------------------------------------------




----------------------------------------- Iteration    1(   2)  ---------------------------------------


     EDDAV:  cpu time    9.8458: real time    4.9231
       DOS:  cpu time    0.0016: real time    0.0008
    --------------------------------------------
      LOOP:  cpu time    9.8514: real time    4.9273

 eigenvalue-minimisations  : 20512
 total energy-change (2. order) :-0.6299946E+02  (-0.5881328E+02)
 number of electron      32.0000059 magnetization       0.0000076      0.0000076      0.0000076
 augmentation part       32.0000059 magnetization       0.0000076      0.0000076      0.0000076

 Free energy of the ion-electron system (eV)
  ---------------------------------------------------
  alpha Z        PSCENC =        13.45656811
  Ewald energy   TEWEN  =      -914.25413255
  -Hartree energ DENC   =       -59.62961906
  -exchange      EXHF   =         0.00000000
  -V(xc)+E(xc)   XCENC  =       -71.81388910
  PAW double counting   =       300.18567133     -160.36412540
  entropy T*S    EENTRO =        -0.00000000
  eigenvalues    EBANDS =        29.71205217
  atomic energy  EATOM  =       824.49028925
  Solvation  Ediel_sol  =         0.00000000
  ---------------------------------------------------
  free energy    TOTEN  =       -38.21718525 eV

  energy without entropy =      -38.21718525  energy(sigma->0) =      -38.21718525


--------------------------------------------------------------------------------------------------------




----------------------------------------- Iteration    1(   3)  ---------------------------------------


     EDDAV:  cpu time   21.0417: real time   11.0354
       DOS:  cpu time    0.0016: real time    0.0008
    --------------------------------------------
      LOOP:  cpu time   21.0478: real time   11.0401

 eigenvalue-minimisations  : 20736
 total energy-change (2. order) :-0.2208421E+01  (-0.2178472E+01)
 number of electron      32.0000059 magnetization       0.0000076      0.0000076      0.0000076
 augmentation part       32.0000059 magnetization       0.0000076      0.0000076      0.0000076

 Free energy of the ion-electron system (eV)
  ---------------------------------------------------
  alpha Z        PSCENC =        13.45656811
  Ewald energy   TEWEN  =      -914.25413255
  -Hartree energ DENC   =       -59.62961906
  -exchange      EXHF   =         0.00000000
  -V(xc)+E(xc)   XCENC  =       -71.81388910
  PAW double counting   =       300.18567133     -160.36412540
  entropy T*S    EENTRO =        -0.00000000
  eigenvalues    EBANDS =        27.50363139
  atomic energy  EATOM  =       824.49028925
  Solvation  Ediel_sol  =         0.00000000
  ---------------------------------------------------
  free energy    TOTEN  =       -40.42560603 eV

  energy without entropy =      -40.42560603  energy(sigma->0) =      -40.42560603


--------------------------------------------------------------------------------------------------------




----------------------------------------- Iteration    1(   4)  ---------------------------------------


     EDDAV:  cpu time    9.6275: real time    4.8140
       DOS:  cpu time    0.0016: real time    0.0008
    --------------------------------------------
      LOOP:  cpu time    9.6332: real time    4.8184

 eigenvalue-minimisations  : 20384
 total energy-change (2. order) :-0.1572767E-01  (-0.1572392E-01)
 number of electron      32.0000059 magnetization       0.0000076      0.0000076      0.0000076
 augmentation part       32.0000059 magnetization       0.0000076      0.0000076      0.0000076

 Free energy of the ion-electron system (eV)
  ---------------------------------------------------
  alpha Z        PSCENC =        13.45656811
  Ewald energy   TEWEN  =      -914.25413255
  -Hartree energ DENC   =       -59.62961906
  -exchange      EXHF   =         0.00000000
  -V(xc)+E(xc)   XCENC  =       -71.81388910
  PAW double counting   =       300.18567133     -160.36412540
  entropy T*S    EENTRO =        -0.00000000
  eigenvalues    EBANDS =        27.48790372
  atomic energy  EATOM  =       824.49028925
  Solvation  Ediel_sol  =         0.00000000
  ---------------------------------------------------
  free energy    TOTEN  =       -40.44133370 eV

  energy without entropy =      -40.44133370  energy(sigma->0) =      -40.44133370


--------------------------------------------------------------------------------------------------------




----------------------------------------- Iteration    1(   5)  ---------------------------------------


     EDDAV:  cpu time    9.5902: real time    4.7954
       DOS:  cpu time    0.0016: real time    0.0008
    --------------------------------------------
      LOOP:  cpu time    9.5967: real time    4.8004

 eigenvalue-minimisations  : 20288
 total energy-change (2. order) :-0.1510606E-03  (-0.1510559E-03)
 number of electron      32.0000059 magnetization       0.0000076      0.0000076      0.0000076
 augmentation part       32.0000059 magnetization       0.0000076      0.0000076      0.0000076

 Free energy of the ion-electron system (eV)
  ---------------------------------------------------
  alpha Z        PSCENC =        13.45656811
  Ewald energy   TEWEN  =      -914.25413255
  -Hartree energ DENC   =       -59.62961906
  -exchange      EXHF   =         0.00000000
  -V(xc)+E(xc)   XCENC  =       -71.81388910
  PAW double counting   =       300.18567133     -160.36412540
  entropy T*S    EENTRO =        -0.00000000
  eigenvalues    EBANDS =        27.48775266
  atomic energy  EATOM  =       824.49028925
  Solvation  Ediel_sol  =         0.00000000
  ---------------------------------------------------
  free energy    TOTEN  =       -40.44148476 eV

  energy without entropy =      -40.44148476  energy(sigma->0) =      -40.44148476


--------------------------------------------------------------------------------------------------------




----------------------------------------- Iteration    1(   6)  ---------------------------------------


    EDDIAG:  cpu time    1.8842: real time    0.9422
  RMM-DIIS:  cpu time    4.5967: real time    2.4486
    ORTHCH:  cpu time    2.2986: real time    0.4610
       DOS:  cpu time    0.0098: real time    0.0020
    --------------------------------------------
      LOOP:  cpu time    8.7944: real time    3.8578

 eigenvalue-minimisations  : 16476
 total energy-change (2. order) :-0.1936211E-05  (-0.1936154E-05)
 number of electron      32.0000059 magnetization       0.0000076      0.0000076      0.0000076
 augmentation part       32.0000059 magnetization       0.0000076      0.0000076      0.0000076

 Free energy of the ion-electron system (eV)
  ---------------------------------------------------
  alpha Z        PSCENC =        13.45656811
  Ewald energy   TEWEN  =      -914.25413255
  -Hartree energ DENC   =       -59.62961906
  -exchange      EXHF   =         0.00000000
  -V(xc)+E(xc)   XCENC  =       -71.81388910
  PAW double counting   =       300.18567133     -160.36412540
  entropy T*S    EENTRO =        -0.00000000
  eigenvalues    EBANDS =        27.48775072
  atomic energy  EATOM  =       824.49028925
  Solvation  Ediel_sol  =         0.00000000
  ---------------------------------------------------
  free energy    TOTEN  =       -40.44148670 eV

  energy without entropy =      -40.44148670  energy(sigma->0) =      -40.44148670


--------------------------------------------------------------------------------------------------------




----------------------------------------- Iteration    1(   7)  ---------------------------------------


    EDDIAG:  cpu time    2.6354: real time    1.0215
  RMM-DIIS:  cpu time    5.1705: real time    2.8237
    ORTHCH:  cpu time    2.2692: real time    0.4556
       DOS:  cpu time    0.0084: real time    0.0017
    --------------------------------------------
      LOOP:  cpu time   10.0980: real time    4.3060

 eigenvalue-minimisations  : 20103
 total energy-change (2. order) :-0.6218727E-07  (-0.5948019E-07)
 number of electron      32.0000059 magnetization       0.0000076      0.0000076      0.0000076
 augmentation part       32.0000059 magnetization       0.0000076      0.0000076      0.0000076

 Free energy of the ion-electron system (eV)
  ---------------------------------------------------
  alpha Z        PSCENC =        13.45656811
  Ewald energy   TEWEN  =      -914.25413255
  -Hartree energ DENC   =       -59.62961906
  -exchange      EXHF   =         0.00000000
  -V(xc)+E(xc)   XCENC  =       -71.81388910
  PAW double counting   =       300.18567133     -160.36412540
  entropy T*S    EENTRO =        -0.00000000
  eigenvalues    EBANDS =        27.48775066
  atomic energy  EATOM  =       824.49028925
  Solvation  Ediel_sol  =         0.00000000
  ---------------------------------------------------
  free energy    TOTEN  =       -40.44148676 eV

  energy without entropy =      -40.44148676  energy(sigma->0) =      -40.44148676


--------------------------------------------------------------------------------------------------------




 average (electrostatic) potential at core
  the test charge radii are     0.9892
  (the norm of the test charge is              1.0000)
       1 -83.2477       2 -83.2477       3 -83.2477       4 -83.2477       5 -83.2477
       6 -83.2477       7 -83.2477       8 -83.2477
 
 
 
 E-fermi :   5.9640     XC(G=0):  -9.4116     alpha+bet :-11.9845


 k-point     1 :       0.0000    0.0000    0.0000
  band No.  band energies     occupation 
      1      -6.1307      1.00000
      2      -6.1307      1.00000
      3      -1.9840      1.00000
      4      -1.9840      1.00000
      5      -1.9840      1.00000
      6      -1.9840      1.00000
      7      -1.9840      1.00000
      8      -1.9840      1.00000
      9      -1.9840      1.00000
     10      -1.9840      1.00000
     11      -1.9840      1.00000
     12      -1.9840      1.00000
     13      -1.9840      1.00000
     14      -1.9840      1.00000
     15       2.9820      1.00000
     16       2.9820      1.00000
     17       2.9820      1.00000
     18       2.9820      1.00000
     19       2.9820      1.00000
     20       2.9820      1.00000
     21       2.9820      1.00000
     22       2.9820      1.00000
     23       2.9820      1.00000
     24       2.9820      1.00000
     25       2.9820      1.00000
     26       2.9820      1.00000
     27       5.8091      1.00000
     28       5.8091      1.00000
     29       5.8569      1.00000
     30       5.8569      1.00000
     31       5.8569      1.00000
     32       5.8569      1.00000
     33       6.5595      0.00000
     34       6.5595      0.00000
     35       6.5595      0.00000
     36       6.5595      0.00000
     37       6.5595      0.00000
     38       6.5595      0.00000
     39       6.5595      0.00000
     40       6.5595      0.00000
     41       6.5595      0.00000
     42       6.5595      0.00000
     43       6.5595      0.00000
     44       6.5595      0.00000
     45       8.3858      0.00000
     46       8.3858      0.00000
     47       8.4208      0.00000
     48       8.4208      0.00000
     49       8.4208      0.00000
     50       8.4208      0.00000
     51       9.2079      0.00000
     52       9.2079      0.00000
     53      13.6282      0.00000
     54      13.6282      0.00000
     55      13.6282      0.00000
     56      13.6282      0.00000
     57      13.7928      0.00000
     58      13.7928      0.00000
     59      15.9656      0.00000
     60      15.9656      0.00000
     61      15.9656      0.00000
     62      15.9656      0.00000
     63      15.9656      0.00000
     64      15.9656      0.00000
     65      15.9656      0.00000
     66      15.9656      0.00000
     67      15.9656      0.00000
     68      15.9656      0.00000
     69      15.9656      0.00000
     70      15.9656      0.00000
     71      16.9224      0.00000
     72      16.9224      0.00000
     73      16.9224      0.00000
     74      16.9224      0.00000
     75      16.9224      0.00000
     76      16.9224      0.00000
     77      16.9224      0.00000
     78      16.9224      0.00000
     79      16.9224      0.00000
     80      16.9225      0.00000
     81      16.9225      0.00000
     82      16.9225      0.00000
     83      17.1059      0.00000
     84      17.1059      0.00000
     85      17.1165      0.00000
     86      17.1165      0.00000
     87      17.1165      0.00000
     88      17.1165      0.00000
     89      18.4604      0.00000
     90      18.4605      0.00000
     91      18.4608      0.00000
     92      18.4610      0.00000
     93      18.4616      0.00000
     94      18.4633      0.00000
     95      18.4663      0.00000
     96      18.4694      0.00000

 k-point     2 :       0.0000    0.0385    0.0000
  band No.  band energies     occupation 
      1      -6.1241      1.00000
      2      -6.1241      1.00000
      3      -2.2779      1.00000
      4      -2.2779      1.00000
      5      -1.9821      1.00000
      6      -1.9821      1.00000
      7      -1.9821      1.00000
      8      -1.9821      1.00000
      9      -1.9816      1.00000
     10      -1.9816      1.00000
     11      -1.9816      1.00000
     12      -1.9816      1.00000
     13      -1.6824      1.00000
     14      -1.6824      1.00000
     15       2.9613      1.00000
     16       2.9613      1.00000
     17       2.9613      1.00000
     18       2.9613      1.00000
     19       2.9634      1.00000
     20       2.9634      1.00000
     21       2.9634      1.00000
     22       2.9634      1.00000
     23       2.9876      1.00000
     24       2.9876      1.00000
     25       2.9881      1.00000
     26       2.9881      1.00000
     27       5.7758      1.00000
     28       5.7758      1.00000
     29       5.8202      1.00000
     30       5.8202      1.00000
     31       5.8295      1.00000
     32       5.8295      1.00000
     33       6.4994      0.00000
     34       6.4994      0.00000
     35       6.5948      0.00000
     36       6.5948      0.00000
     37       6.5948      0.00000
     38       6.5948      0.00000
     39       6.5963      0.00000
     40       6.5963      0.00000
     41       6.5963      0.00000
     42       6.5963      0.00000
     43       6.6371      0.00000
     44       6.6372      0.00000
     45       8.3875      0.00000
     46       8.3875      0.00000
     47       8.4400      0.00000
     48       8.4400      0.00000
     49       8.4568      0.00000
     50       8.4568      0.00000
     51       9.2517      0.00000
     52       9.2517      0.00000
     53      13.5736      0.00000
     54      13.5736      0.00000
     55      13.6354      0.00000
     56      13.6354      0.00000
     57      13.8219      0.00000
     58      13.8219      0.00000
     59      15.8228      0.00000
     60      15.8228      0.00000
     61      15.8288      0.00000
     62      15.8288      0.00000
     63      15.9047      0.00000
     64      15.9047      0.00000
     65      15.9047      0.00000
     66      15.9047      0.00000
     67      15.9087      0.00000
     68      15.9087      0.00000
     69      15.9087      0.00000
     70      15.9087      0.00000
     71      16.8353      0.00000
     72      16.8353      0.00000
     73      16.8353      0.00000
     74      16.8353      0.00000
     75      16.8380      0.00000
     76      16.8380      0.00000
     77      16.8380      0.00000
     78      16.8380      0.00000
     79      17.0618      0.00000
     80      17.0618      0.00000
     81      17.0676      0.00000
     82      17.0676      0.00000
     83      17.1227      0.00000
     84      17.1227      0.00000
     85      17.1305      0.00000
     86      17.1305      0.00000
     87      17.1548      0.00000
     88      17.1548      0.00000
     89      18.1032      0.00000
     90      18.1163      0.00000
     91      18.5256      0.00000
     92      18.5262      0.00000
     93      18.5291      0.00000
     94      18.5347      0.00000
     95      18.5420      0.00000
     96      18.5566      0.00000

 k-point     3 :       0.0000    0.0769    0.0000
  band No.  band energies     occupation 
      1      -6.1047      1.00000
      2      -6.1047      1.00000
      3      -2.5635      1.00000
      4      -2.5635      1.00000
      5      -1.9760      1.00000
      6      -1.9760      1.00000
      7      -1.9760      1.00000
      8      -1.9760      1.00000
      9      -1.9749      1.00000
     10      -1.9749      1.00000
     11      -1.9749      1.00000
     12      -1.9749      1.00000
     13      -1.3736      1.00000
     14      -1.3736      1.00000
     15       2.9038      1.00000
     16       2.9038      1.00000
     17       2.9038      1.00000
     18       2.9038      1.00000
     19       2.9079      1.00000
     20       2.9079      1.00000
     21       2.9079      1.00000
     22       2.9079      1.00000
     23       3.0049      1.00000
     24       3.0049      1.00000
     25       3.0059      1.00000
     26       3.0059      1.00000
     27       5.6628      1.00000
     28       5.6628      1.00000
     29       5.7274      1.00000
     30       5.7274      1.00000
     31       5.7485      1.00000
     32       5.7485      1.00000
     33       6.4564      0.00000
     34       6.4565      0.00000
     35       6.6991      0.00000
     36       6.6991      0.00000
     37       6.6991      0.00000
     38       6.6991      0.00000
     39       6.7020      0.00000
     40       6.7020      0.00000
     41       6.7020      0.00000
     42       6.7020      0.00000
     43       6.7322      0.00000
     44       6.7322      0.00000
     45       8.3445      0.00000
     46       8.3445      0.00000
     47       8.5406      0.00000
     48       8.5406      0.00000
     49       8.5598      0.00000
     50       8.5598      0.00000
     51       9.3746      0.00000
     52       9.3746      0.00000
     53      13.4212      0.00000
     54      13.4212      0.00000
     55      13.6569      0.00000
     56      13.6569      0.00000
     57      13.9076      0.00000
     58      13.9077      0.00000
     59      15.5246      0.00000
     60      15.5246      0.00000
     61      15.5327      0.00000
     62      15.5327      0.00000
     63      15.7025      0.00000
     64      15.7025      0.00000
     65      15.7025      0.00000
     66      15.7025      0.00000
     67      15.7106      0.00000
     68      15.7106      0.00000
     69      15.7106      0.00000
     70      15.7106      0.00000
     71      16.6753      0.00000
     72      16.6753      0.00000
     73      16.6753      0.00000
     74      16.6753      0.00000
     75      16.6818      0.00000
     76      16.6819      0.00000
     77      16.6819      0.00000
     78      16.6819      0.00000
     79      17.1574      0.00000
     80      17.1574      0.00000
     81      17.1646      0.00000
     82      17.1647      0.00000
     83      17.2605      0.00000
     84      17.2606      0.00000
     85      17.3648      0.00000
     86      17.3649      0.00000
     87      17.3723      0.00000
     88      17.3725      0.00000
     89      17.7535      0.00000
     90      17.7537      0.00000
     91      18.2763      0.00000
     92      18.2842      0.00000
     93      18.6064      0.00000
     94      18.6067      0.00000
     95      18.6096      0.00000
     96      18.6103      0.00000

 k-point     4 :       0.0000    0.1154    0.0000
  band No.  band energies     occupation 
      1      -6.0723      1.00000
      2      -6.0723      1.00000
      3      -2.8404      1.00000
      4      -2.8404      1.00000
      5      -1.9659      1.00000
      6      -1.9659      1.00000
      7      -1.9659      1.00000
      8      -1.9659      1.00000
      9      -1.9642      1.00000
     10      -1.9642      1.00000
     11      -1.9642      1.00000
     12      -1.9642      1.00000
     13      -1.0582      1.00000
     14      -1.0582      1.00000
     15       2.8171      1.00000
     16       2.8171      1.00000
     17       2.8171      1.00000
     18       2.8171      1.00000
     19       2.8229      1.00000
     20       2.8229      1.00000
     21       2.8229      1.00000
     22       2.8229      1.00000
     23       3.0338      1.00000
     24       3.0338      1.00000
     25       3.0354      1.00000
     26       3.0354      1.00000
     27       5.4745      1.00000
     28       5.4745      1.00000
     29       5.6033      1.00000
     30       5.6033      1.00000
     31       5.6265      1.00000
     32       5.6265      1.00000
     33       6.4302      0.00000
     34       6.4302      0.00000
     35       6.8459      0.00000
     36       6.8459      0.00000
     37       6.8663      0.00000
     38       6.8663      0.00000
     39       6.8663      0.00000
     40       6.8663      0.00000
     41       6.8703      0.00000
     42       6.8703      0.00000
     43       6.8703      0.00000
     44       6.8703      0.00000
     45       8.2699      0.00000
     46       8.2699      0.00000
     47       8.7019      0.00000
     48       8.7019      0.00000
     49       8.7190      0.00000
     50       8.7190      0.00000
     51       9.5570      0.00000
     52       9.5570      0.00000
     53      13.1984      0.00000
     54      13.1984      0.00000
     55      13.6929      0.00000
     56      13.6929      0.00000
     57      14.0469      0.00000
     58      14.0469      0.00000
     59      15.1798      0.00000
     60      15.1798      0.00000
     61      15.1884      0.00000
     62      15.1884      0.00000
     63      15.3621      0.00000
     64      15.3621      0.00000
     65      15.3621      0.00000
     66      15.3621      0.00000
     67      15.3723      0.00000
     68      15.3723      0.00000
     69      15.3723      0.00000
     70      15.3723      0.00000
     71      16.5679      0.00000
     72      16.5679      0.00000
     73      16.5679      0.00000
     74      16.5679      0.00000
     75      16.5773      0.00000
     76      16.5773      0.00000
     77      16.5773      0.00000
     78      16.5773      0.00000
     79      17.2145      0.00000
     80      17.2145      0.00000
     81      17.2215      0.00000
     82      17.2215      0.00000
     83      17.4141      0.00000
     84      17.4141      0.00000
     85      17.4203      0.00000
     86      17.4203      0.00000
     87      17.7186      0.00000
     88      17.7201      0.00000
     89      17.7261      0.00000
     90      17.7266      0.00000
     91      17.9236      0.00000
     92      17.9281      0.00000
     93      18.6541      0.00000
     94      18.6553      0.00000
     95      18.6588      0.00000
     96      18.6601      0.00000

 k-point     5 :       0.0000    0.1538    0.0000
  band No.  band energies     occupation 
      1      -6.0270      1.00000
      2      -6.0270      1.00000
      3      -3.1081      1.00000
      4      -3.1081      1.00000
      5      -1.9523      1.00000
      6      -1.9523      1.00000
      7      -1.9523      1.00000
      8      -1.9523      1.00000
      9      -1.9501      1.00000
     10      -1.9501      1.00000
     11      -1.9501      1.00000
     12      -1.9501      1.00000
     13      -0.7368      1.00000
     14      -0.7368      1.00000
     15       2.7103      1.00000
     16       2.7103      1.00000
     17       2.7103      1.00000
     18       2.7103      1.00000
     19       2.7176      1.00000
     20       2.7176      1.00000
     21       2.7176      1.00000
     22       2.7176      1.00000
     23       3.0744      1.00000
     24       3.0744      1.00000
     25       3.0765      1.00000
     26       3.0765      1.00000
     27       5.2346      1.00000
     28       5.2346      1.00000
     29       5.4543      1.00000
     30       5.4543      1.00000
     31       5.4763      1.00000
     32       5.4763      1.00000
     33       6.4203      0.00000
     34       6.4203      0.00000
     35       6.9781      0.00000
     36       6.9781      0.00000
     37       7.0871      0.00000
     38       7.0871      0.00000
     39       7.0871      0.00000
     40       7.0871      0.00000
     41       7.0919      0.00000
     42       7.0919      0.00000
     43       7.0920      0.00000
     44       7.0920      0.00000
     45       8.1715      0.00000
     46       8.1715      0.00000
     47       8.9077      0.00000
     48       8.9077      0.00000
     49       8.9221      0.00000
     50       8.9221      0.00000
     51       9.7735      0.00000
     52       9.7735      0.00000
     53      12.9391      0.00000
     54      12.9391      0.00000
     55      13.7433      0.00000
     56      13.7433      0.00000
     57      14.2348      0.00000
     58      14.2348      0.00000
     59      14.8208      0.00000
     60      14.8208      0.00000
     61      14.8294      0.00000
     62      14.8294      0.00000
     63      14.9296      0.00000
     64      14.9296      0.00000
     65      14.9296      0.00000
     66      14.9296      0.00000
     67      14.9403      0.00000
     68      14.9403      0.00000
     69      14.9403      0.00000
     70      14.9403      0.00000
     71      16.5129      0.00000
     72      16.5129      0.00000
     73      16.5129      0.00000
     74      16.5129      0.00000
     75      16.5239      0.00000
     76      16.5239      0.00000
     77      16.5239      0.00000
     78      16.5240      0.00000
     79      17.1010      0.00000
     80      17.1010      0.00000
     81      17.2941      0.00000
     82      17.2941      0.00000
     83      17.3009      0.00000
     84      17.3009      0.00000
     85      17.5558      0.00000
     86      17.5560      0.00000
     87      17.5943      0.00000
     88      17.5945      0.00000
     89      18.0874      0.00000
     90      18.0924      0.00000
     91      18.0954      0.00000
     92      18.1003      0.00000
     93      18.6857      0.00000
     94      18.6886      0.00000
     95      18.6914      0.00000
     96      18.6919      0.00000

 k-point     6 :       0.0000    0.1923    0.0000
  band No.  band energies     occupation 
      1      -5.9688      1.00000
      2      -5.9688      1.00000
      3      -3.3663      1.00000
      4      -3.3663      1.00000
      5      -1.9359      1.00000
      6      -1.9359      1.00000
      7      -1.9359      1.00000
      8      -1.9359      1.00000
      9      -1.9331      1.00000
     10      -1.9331      1.00000
     11      -1.9331      1.00000
     12      -1.9331      1.00000
     13      -0.4092      1.00000
     14      -0.4092      1.00000
     15       2.5926      1.00000
     16       2.5926      1.00000
     17       2.5926      1.00000
     18       2.5926      1.00000
     19       2.6011      1.00000
     20       2.6011      1.00000
     21       2.6011      1.00000
     22       2.6011      1.00000
     23       3.1263      1.00000
     24       3.1263      1.00000
     25       3.1291      1.00000
     26       3.1291      1.00000
     27       4.9599      1.00000
     28       4.9599      1.00000
     29       5.2886      1.00000
     30       5.2886      1.00000
     31       5.3087      1.00000
     32       5.3087      1.00000
     33       6.4252      0.00000
     34       6.4252      0.00000
     35       7.1295      0.00000
     36       7.1295      0.00000
     37       7.3527      0.00000
     38       7.3527      0.00000
     39       7.3527      0.00000
     40       7.3527      0.00000
     41       7.3581      0.00000
     42       7.3581      0.00000
     43       7.3581      0.00000
     44       7.3581      0.00000
     45       8.0548      0.00000
     46       8.0548      0.00000
     47       9.1467      0.00000
     48       9.1467      0.00000
     49       9.1584      0.00000
     50       9.1584      0.00000
     51       9.9941      0.00000
     52       9.9941      0.00000
     53      12.6801      0.00000
     54      12.6801      0.00000
     55      13.8080      0.00000
     56      13.8080      0.00000
     57      14.4524      0.00000
     58      14.4524      0.00000
     59      14.4533      0.00000
     60      14.4533      0.00000
     61      14.4533      0.00000
     62      14.4533      0.00000
     63      14.4608      0.00000
     64      14.4608      0.00000
     65      14.4640      0.00000
     66      14.4640      0.00000
     67      14.4640      0.00000
     68      14.4640      0.00000
     69      14.4659      0.00000
     70      14.4660      0.00000
     71      16.4865      0.00000
     72      16.4865      0.00000
     73      16.4865      0.00000
     74      16.4866      0.00000
     75      16.4987      0.00000
     76      16.4987      0.00000
     77      16.4987      0.00000
     78      16.4987      0.00000
     79      16.7725      0.00000
     80      16.7725      0.00000
     81      17.1759      0.00000
     82      17.1759      0.00000
     83      17.3961      0.00000
     84      17.3961      0.00000
     85      17.4027      0.00000
     86      17.4027      0.00000
     87      17.7876      0.00000
     88      17.7877      0.00000
     89      18.4533      0.00000
     90      18.4593      0.00000
     91      18.4720      0.00000
     92      18.4782      0.00000
     93      18.7185      0.00000
     94      18.7208      0.00000
     95      18.7258      0.00000
     96      18.7274      0.00000

 k-point     7 :       0.0000    0.2308    0.0000
  band No.  band energies     occupation 
      1      -5.8979      1.00000
      2      -5.8978      1.00000
      3      -3.6145      1.00000
      4      -3.6145      1.00000
      5      -1.9176      1.00000
      6      -1.9176      1.00000
      7      -1.9176      1.00000
      8      -1.9176      1.00000
      9      -1.9142      1.00000
     10      -1.9142      1.00000
     11      -1.9142      1.00000
     12      -1.9142      1.00000
     13      -0.0776      1.00000
     14      -0.0776      1.00000
     15       2.4717      1.00000
     16       2.4717      1.00000
     17       2.4717      1.00000
     18       2.4717      1.00000
     19       2.4812      1.00000
     20       2.4812      1.00000
     21       2.4812      1.00000
     22       2.4812      1.00000
     23       3.1899      1.00000
     24       3.1899      1.00000
     25       3.1933      1.00000
     26       3.1933      1.00000
     27       4.6613      1.00000
     28       4.6613      1.00000
     29       5.1136      1.00000
     30       5.1137      1.00000
     31       5.1317      1.00000
     32       5.1317      1.00000
     33       6.4464      0.00000
     34       6.4465      0.00000
     35       7.2994      0.00000
     36       7.2994      0.00000
     37       7.6539      0.00000
     38       7.6539      0.00000
     39       7.6539      0.00000
     40       7.6539      0.00000
     41       7.6597      0.00000
     42       7.6597      0.00000
     43       7.6597      0.00000
     44       7.6597      0.00000
     45       7.9250      0.00000
     46       7.9250      0.00000
     47       9.4103      0.00000
     48       9.4103      0.00000
     49       9.4196      0.00000
     50       9.4196      0.00000
     51      10.1791      0.00000
     52      10.1791      0.00000
     53      12.4582      0.00000
     54      12.4583      0.00000
     55      13.8871      0.00000
     56      13.8871      0.00000
     57      13.9539      0.00000
     58      13.9539      0.00000
     59      13.9539      0.00000
     60      13.9539      0.00000
     61      13.9645      0.00000
     62      13.9645      0.00000
     63      13.9645      0.00000
     64      13.9645      0.00000
     65      14.0891      0.00000
     66      14.0891      0.00000
     67      14.0971      0.00000
     68      14.0971      0.00000
     69      14.7346      0.00000
     70      14.7347      0.00000
     71      16.4695      0.00000
     72      16.4695      0.00000
     73      16.4695      0.00000
     74      16.4695      0.00000
     75      16.4808      0.00000
     76      16.4808      0.00000
     77      16.4827      0.00000
     78      16.4827      0.00000
     79      16.4827      0.00000
     80      16.4827      0.00000
     81      16.7851      0.00000
     82      16.7851      0.00000
     83      17.5202      0.00000
     84      17.5202      0.00000
     85      17.5266      0.00000
     86      17.5266      0.00000
     87      17.9854      0.00000
     88      17.9858      0.00000
     89      18.7515      0.00000
     90      18.7529      0.00000
     91      18.7579      0.00000
     92      18.7621      0.00000
     93      18.7646      0.00000
     94      18.7716      0.00000
     95      18.7878      0.00000
     96      18.8005      0.00000

 k-point     8 :       0.0000    0.2692    0.0000
  band No.  band energies     occupation 
      1      -5.8141      1.00000
      2      -5.8141      1.00000
      3      -3.8525      1.00000
      4      -3.8525      1.00000
      5      -1.8981      1.00000
      6      -1.8981      1.00000
      7      -1.8981      1.00000
      8      -1.8981      1.00000
      9      -1.8943      1.00000
     10      -1.8943      1.00000
     11      -1.8943      1.00000
     12      -1.8943      1.00000
     13       0.2578      1.00000
     14       0.2578      1.00000
     15       2.3548      1.00000
     16       2.3548      1.00000
     17       2.3548      1.00000
     18       2.3548      1.00000
     19       2.3651      1.00000
     20       2.3651      1.00000
     21       2.3651      1.00000
     22       2.3651      1.00000
     23       3.2647      1.00000
     24       3.2647      1.00000
     25       3.2686      1.00000
     26       3.2686      1.00000
     27       4.3472      1.00000
     28       4.3472      1.00000
     29       4.9350      1.00000
     30       4.9350      1.00000
     31       4.9512      1.00000
     32       4.9512      1.00000
     33       6.4816      0.00000
     34       6.4817      0.00000
     35       7.4880      0.00000
     36       7.4880      0.00000
     37       7.7870      0.00000
     38       7.7870      0.00000
     39       7.9870      0.00000
     40       7.9870      0.00000
     41       7.9870      0.00000
     42       7.9870      0.00000
     43       7.9931      0.00000
     44       7.9931      0.00000
     45       7.9931      0.00000
     46       7.9931      0.00000
     47       9.6931      0.00000
     48       9.6931      0.00000
     49       9.7001      0.00000
     50       9.7001      0.00000
     51      10.2774      0.00000
     52      10.2774      0.00000
     53      12.3446      0.00000
     54      12.3446      0.00000
     55      13.4527      0.00000
     56      13.4527      0.00000
     57      13.4527      0.00000
     58      13.4527      0.00000
     59      13.4632      0.00000
     60      13.4632      0.00000
     61      13.4632      0.00000
     62      13.4632      0.00000
     63      13.7194      0.00000
     64      13.7194      0.00000
     65      13.7269      0.00000
     66      13.7269      0.00000
     67      13.9805      0.00000
     68      13.9805      0.00000
     69      15.0358      0.00000
     70      15.0358      0.00000
     71      16.2001      0.00000
     72      16.2001      0.00000
     73      16.3825      0.00000
     74      16.3825      0.00000
     75      16.4606      0.00000
     76      16.4606      0.00000
     77      16.4606      0.00000
     78      16.4606      0.00000
     79      16.4748      0.00000
     80      16.4748      0.00000
     81      16.4748      0.00000
     82      16.4748      0.00000
     83      17.6661      0.00000
     84      17.6662      0.00000
     85      17.6723      0.00000
     86      17.6724      0.00000
     87      18.1890      0.00000
     88      18.1893      0.00000
     89      18.7842      0.00000
     90      18.7853      0.00000
     91      18.7909      0.00000
     92      18.7968      0.00000
     93      18.8002      0.00000
     94      18.8053      0.00000
     95      18.8272      0.00000
     96      18.8785      0.00000

 k-point     9 :       0.0000    0.3077    0.0000
  band No.  band energies     occupation 
      1      -5.7177      1.00000
      2      -5.7177      1.00000
      3      -4.0797      1.00000
      4      -4.0797      1.00000
      5      -1.8787      1.00000
      6      -1.8787      1.00000
      7      -1.8787      1.00000
      8      -1.8787      1.00000
      9      -1.8745      1.00000
     10      -1.8745      1.00000
     11      -1.8745      1.00000
     12      -1.8745      1.00000
     13       0.5969      1.00000
     14       0.5969      1.00000
     15       2.2475      1.00000
     16       2.2475      1.00000
     17       2.2475      1.00000
     18       2.2475      1.00000
     19       2.2586      1.00000
     20       2.2586      1.00000
     21       2.2586      1.00000
     22       2.2586      1.00000
     23       3.3516      1.00000
     24       3.3516      1.00000
     25       3.3562      1.00000
     26       3.3562      1.00000
     27       4.0215      1.00000
     28       4.0215      1.00000
     29       4.7549      1.00000
     30       4.7549      1.00000
     31       4.7695      1.00000
     32       4.7695      1.00000
     33       6.5320      0.00000
     34       6.5320      0.00000
     35       7.6442      0.00000
     36       7.6442      0.00000
     37       7.6962      0.00000
     38       7.6962      0.00000
     39       8.3457      0.00000
     40       8.3457      0.00000
     41       8.3457      0.00000
     42       8.3457      0.00000
     43       8.3519      0.00000
     44       8.3519      0.00000
     45       8.3519      0.00000
     46       8.3519      0.00000
     47       9.9894      0.00000
     48       9.9894      0.00000
     49       9.9943      0.00000
     50       9.9943      0.00000
     51      10.2455      0.00000
     52      10.2455      0.00000
     53      12.3771      0.00000
     54      12.3771      0.00000
     55      12.9508      0.00000
     56      12.9508      0.00000
     57      12.9508      0.00000
     58      12.9508      0.00000
     59      12.9612      0.00000
     60      12.9612      0.00000
     61      12.9612      0.00000
     62      12.9612      0.00000
     63      13.3604      0.00000
     64      13.3604      0.00000
     65      13.3674      0.00000
     66      13.3674      0.00000
     67      14.0853      0.00000
     68      14.0853      0.00000
     69      15.3645      0.00000
     70      15.3645      0.00000
     71      15.9363      0.00000
     72      15.9363      0.00000
     73      15.9765      0.00000
     74      15.9765      0.00000
     75      16.4590      0.00000
     76      16.4590      0.00000
     77      16.4590      0.00000
     78      16.4590      0.00000
     79      16.4740      0.00000
     80      16.4740      0.00000
     81      16.4740      0.00000
     82      16.4740      0.00000
     83      17.8293      0.00000
     84      17.8293      0.00000
     85      17.8352      0.00000
     86      17.8354      0.00000
     87      18.3970      0.00000
     88      18.3975      0.00000
     89      18.8181      0.00000
     90      18.8197      0.00000
     91      18.8282      0.00000
     92      18.8286      0.00000
     93      18.8340      0.00000
     94      18.8517      0.00000
     95      18.8745      0.00000
     96      18.9220      0.00000

 k-point    10 :       0.0000    0.3462    0.0000
  band No.  band energies     occupation 
      1      -5.6086      1.00000
      2      -5.6086      1.00000
      3      -4.2961      1.00000
      4      -4.2961      1.00000
      5      -1.8605      1.00000
      6      -1.8605      1.00000
      7      -1.8605      1.00000
      8      -1.8605      1.00000
      9      -1.8558      1.00000
     10      -1.8558      1.00000
     11      -1.8558      1.00000
     12      -1.8558      1.00000
     13       0.9386      1.00000
     14       0.9386      1.00000
     15       2.1540      1.00000
     16       2.1540      1.00000
     17       2.1540      1.00000
     18       2.1540      1.00000
     19       2.1657      1.00000
     20       2.1657      1.00000
     21       2.1657      1.00000
     22       2.1657      1.00000
     23       3.4487      1.00000
     24       3.4487      1.00000
     25       3.4540      1.00000
     26       3.4540      1.00000
     27       3.6884      1.00000
     28       3.6884      1.00000
     29       4.5795      1.00000
     30       4.5795      1.00000
     31       4.5925      1.00000
     32       4.5925      1.00000
     33       6.5962      0.00000
     34       6.5962      0.00000
     35       7.5015      0.00000
     36       7.5015      0.00000
     37       7.9222      0.00000
     38       7.9222      0.00000
     39       8.7251      0.00000
     40       8.7251      0.00000
     41       8.7252      0.00000
     42       8.7252      0.00000
     43       8.7312      0.00000
     44       8.7312      0.00000
     45       8.7313      0.00000
     46       8.7313      0.00000
     47      10.0880      0.00000
     48      10.0880      0.00000
     49      10.2983      0.00000
     50      10.2983      0.00000
     51      10.3019      0.00000
     52      10.3019      0.00000
     53      12.4546      0.00000
     54      12.4546      0.00000
     55      12.4546      0.00000
     56      12.4546      0.00000
     57      12.4651      0.00000
     58      12.4651      0.00000
     59      12.4651      0.00000
     60      12.4651      0.00000
     61      12.5551      0.00000
     62      12.5552      0.00000
     63      13.0040      0.00000
     64      13.0040      0.00000
     65      13.0102      0.00000
     66      13.0102      0.00000
     67      14.2060      0.00000
     68      14.2060      0.00000
     69      15.5657      0.00000
     70      15.5657      0.00000
     71      15.6867      0.00000
     72      15.6867      0.00000
     73      15.7166      0.00000
     74      15.7166      0.00000
     75      16.4526      0.00000
     76      16.4526      0.00000
     77      16.4526      0.00000
     78      16.4526      0.00000
     79      16.4683      0.00000
     80      16.4683      0.00000
     81      16.4683      0.00000
     82      16.4683      0.00000
     83      18.0160      0.00000
     84      18.0161      0.00000
     85      18.0218      0.00000
     86      18.0219      0.00000
     87      18.6211      0.00000
     88      18.6257      0.00000
     89      18.8239      0.00000
     90      18.8378      0.00000
     91      18.8491      0.00000
     92      18.8521      0.00000
     93      18.8531      0.00000
     94      18.8634      0.00000
     95      18.8692      0.00000
     96      18.8734      0.00000

 k-point    11 :       0.0000    0.3846    0.0000
  band No.  band energies     occupation 
      1      -5.4870      1.00000
      2      -5.4870      1.00000
      3      -4.5017      1.00000
      4      -4.5017      1.00000
      5      -1.8449      1.00000
      6      -1.8449      1.00000
      7      -1.8449      1.00000
      8      -1.8449      1.00000
      9      -1.8398      1.00000
     10      -1.8398      1.00000
     11      -1.8398      1.00000
     12      -1.8398      1.00000
     13       1.2824      1.00000
     14       1.2824      1.00000
     15       2.0778      1.00000
     16       2.0778      1.00000
     17       2.0778      1.00000
[...]
 pseudopotential strength for first ion, spin component:           4
 18.415   0.000  -0.001   0.000  -0.000   0.000  -0.000   0.000   0.000   0.000  -0.000   0.000   0.000   0.000  -0.000   0.000
 -0.001   0.000   0.006   0.000   0.000   0.000   0.000   0.000  -0.000   0.000  -0.000   0.000  -0.000   0.000   0.000   0.000
 -0.000   0.000   0.000   0.000   4.179   0.000  -0.000   0.000   0.000  -0.010  -0.005   0.000   0.000   0.000  -0.000   0.000
 -0.000   0.000   0.000   0.000  -0.000   0.000   4.179   0.000  -0.000   0.000   0.000   0.000  -0.005   0.000   0.000   0.000
  0.000   0.000  -0.000   0.000   0.000   0.010  -0.000   0.000   4.179   0.000  -0.000  -0.000   0.000   0.000  -0.005   0.000
 -0.000   0.000  -0.000   0.000  -0.005   0.000   0.000   0.000  -0.000   0.000   0.005   0.000  -0.000   0.000   0.000  -0.000
  0.000   0.000  -0.000   0.000   0.000   0.000  -0.005   0.000   0.000   0.000  -0.000   0.000   0.005   0.000  -0.000   0.000
 -0.000   0.000   0.000   0.000  -0.000  -0.000   0.000   0.000  -0.005   0.000   0.000   0.000  -0.000   0.000   0.005   0.000
 total augmentation occupancy for first ion, spin component:           1
  2.000   0.000   0.000   0.000   0.000   0.000   0.000   0.000
  0.000   0.000   0.000   0.000   0.000   0.000   0.000   0.000
  0.000   0.000   0.667   0.000   0.000   0.000   0.000   0.000
  0.000   0.000   0.000   0.667   0.000   0.000   0.000   0.000
  0.000   0.000   0.000   0.000   0.667   0.000   0.000   0.000
  0.000   0.000   0.000   0.000   0.000   0.000   0.000   0.000
  0.000   0.000   0.000   0.000   0.000   0.000   0.000   0.000
  0.000   0.000   0.000   0.000   0.000   0.000   0.000   0.000
 total augmentation occupancy for first ion, spin component:           2
  0.500   0.000   0.000   0.000   0.000   0.000   0.000   0.000
  0.000   0.000   0.000   0.000   0.000   0.000   0.000   0.000
  0.000   0.000   0.167   0.000   0.000   0.000   0.000   0.000
  0.000   0.000   0.000   0.167   0.000   0.000   0.000   0.000
  0.000   0.000   0.000   0.000   0.167   0.000   0.000   0.000
  0.000   0.000   0.000   0.000   0.000   0.000   0.000   0.000
  0.000   0.000   0.000   0.000   0.000   0.000   0.000   0.000
  0.000   0.000   0.000   0.000   0.000   0.000   0.000   0.000
 total augmentation occupancy for first ion, spin component:           3
  0.500   0.000   0.000   0.000   0.000   0.000   0.000   0.000
  0.000   0.000   0.000   0.000   0.000   0.000   0.000   0.000
  0.000   0.000   0.167   0.000   0.000   0.000   0.000   0.000
  0.000   0.000   0.000   0.167   0.000   0.000   0.000   0.000
  0.000   0.000   0.000   0.000   0.167   0.000   0.000   0.000
  0.000   0.000   0.000   0.000   0.000   0.000   0.000   0.000
  0.000   0.000   0.000   0.000   0.000   0.000   0.000   0.000
  0.000   0.000   0.000   0.000   0.000   0.000   0.000   0.000
 total augmentation occupancy for first ion, spin component:           4
  0.500   0.000   0.000   0.000   0.000   0.000   0.000   0.000
  0.000   0.000   0.000   0.000   0.000   0.000   0.000   0.000
  0.000   0.000   0.167   0.000   0.000   0.000   0.000   0.000
  0.000   0.000   0.000   0.167   0.000   0.000   0.000   0.000
  0.000   0.000   0.000   0.000   0.167   0.000   0.000   0.000
  0.000   0.000   0.000   0.000   0.000   0.000   0.000   0.000
  0.000   0.000   0.000   0.000   0.000   0.000   0.000   0.000
  0.000   0.000   0.000   0.000   0.000   0.000   0.000   0.000


------------------------ aborting loop because EDIFF is reached ----------------------------------------


    CHARGE:  cpu time    0.9182: real time    0.1957
    FORLOC:  cpu time    0.0020: real time    0.0010
    FORNL :  cpu time    0.9072: real time    0.7037
    STRESS:  cpu time    3.5282: real time    2.0033
    FORCOR:  cpu time    0.3458: real time    0.2264
    FORHAR:  cpu time    0.0207: real time    0.0207
    OFIELD:  cpu time    0.0005: real time    0.0005

  FORCE on cell =-STRESS in cart. coord.  units (eV):
  Direction    XX          YY          ZZ          XY          YZ          ZX
  --------------------------------------------------------------------------------------
  Alpha Z    13.45657    13.45657    13.45657
  Ewald    -304.75190  -304.75190  -304.75190    -0.00000    -0.00000    -0.00000
  Hartree    20.97443    20.97443    20.97443     0.36916     0.36916     0.36916
  E(xc)    -101.66090  -101.66090  -101.66090     0.12540     0.12540     0.12540
  Local    -119.74988  -119.74988  -119.74988     1.75568     1.75568     1.75568
  n-local   314.08649   310.86309   310.27781    -2.42099    -1.04537    -1.50639
  augment   -45.88435   -45.88435   -45.88435     0.25975     0.25975     0.25975
  Kinetic   234.49338   227.00081   233.69630    -2.97751    -1.52649    -1.90881
  Fock        0.00000     0.00000     0.00000     0.00000     0.00000     0.00000
  -------------------------------------------------------------------------------------
  Total       5.85659     5.85659     5.85659    -1.28519    -1.28519    -1.28519
  in kB      58.60788    58.60788    58.60788   -12.86110   -12.86110   -12.86110
  external pressure =       58.61 kB  Pullay stress =        0.00 kB


 VOLUME and BASIS-vectors are now :
 -----------------------------------------------------------------------------
  energy-cutoff  :      245.34
  volume of cell :      160.10
      direct lattice vectors                 reciprocal lattice vectors
     5.430000000  0.000000000  0.000000000     0.184162063  0.000000000  0.000000000
     0.000000000  5.430000000  0.000000000     0.000000000  0.184162063  0.000000000
     0.000000000  0.000000000  5.430000000     0.000000000  0.000000000  0.184162063

  length of vectors
     5.430000000  5.430000000  5.430000000     0.184162063  0.184162063  0.184162063


 FORCES acting on ions
    electron-ion (+dipol)            ewald-force                    non-local-force                 convergence-correction
 -----------------------------------------------------------------------------------------------
   0.460E+00 0.460E+00 0.460E+00   -.355E-14 -.355E-14 0.000E+00   -.482E+00 -.482E+00 -.482E+00   -.224E-01 -.224E-01 -.224E-01
   0.460E+00 0.460E+00 0.460E+00   -.355E-14 -.355E-14 0.000E+00   -.482E+00 -.482E+00 -.482E+00   -.224E-01 -.224E-01 -.224E-01
   0.460E+00 0.460E+00 0.460E+00   -.355E-14 -.355E-14 0.000E+00   -.482E+00 -.482E+00 -.482E+00   -.224E-01 -.224E-01 -.224E-01
   0.460E+00 0.460E+00 0.460E+00   -.355E-14 -.355E-14 0.000E+00   -.482E+00 -.482E+00 -.482E+00   -.224E-01 -.224E-01 -.224E-01
   -.460E+00 -.460E+00 -.460E+00   0.336E-14 0.728E-14 0.376E-15   0.482E+00 0.482E+00 0.482E+00   0.224E-01 0.224E-01 0.224E-01
   -.460E+00 -.460E+00 -.460E+00   -.282E-15 0.729E-14 -.365E-15   0.482E+00 0.482E+00 0.482E+00   0.224E-01 0.224E-01 0.224E-01
   -.460E+00 -.460E+00 -.460E+00   -.372E-15 0.694E-14 0.295E-15   0.482E+00 0.482E+00 0.482E+00   0.224E-01 0.224E-01 0.224E-01
   -.460E+00 -.460E+00 -.460E+00   0.441E-14 0.695E-14 -.446E-15   0.482E+00 0.482E+00 0.482E+00   0.224E-01 0.224E-01 0.224E-01
 -----------------------------------------------------------------------------------------------
   -.147E-12 -.261E-12 -.254E-12   -.709E-14 0.143E-13 -.140E-15   0.333E-15 0.389E-15 0.333E-15   0.430E-14 0.189E-13 0.115E-13
 
 
 POSITION                                       TOTAL-FORCE (eV/Angst)
 -----------------------------------------------------------------------------------
      0.00000      0.00000      0.00000        -0.044536     -0.044536     -0.044536
      0.00000      2.71500      2.71500        -0.044536     -0.044536     -0.044536
      2.71500      2.71500      0.00000        -0.044536     -0.044536     -0.044536
      2.71500      0.00000      2.71500        -0.044536     -0.044536     -0.044536
      4.07250      1.35750      4.07250         0.044536      0.044536      0.044536
      1.35750      1.35750      1.35750         0.044536      0.044536      0.044536
      1.35750      4.07250      4.07250         0.044536      0.044536      0.044536
      4.07250      4.07250      1.35750         0.044536      0.044536      0.044536
 -----------------------------------------------------------------------------------
    total drift:                               -0.000000     -0.000000     -0.000000


--------------------------------------------------------------------------------------------------------



  FREE ENERGIE OF THE ION-ELECTRON SYSTEM (eV)
  ---------------------------------------------------
  free  energy   TOTEN  =       -40.44148676 eV

  energy  without entropy=      -40.44148676  energy(sigma->0) =      -40.44148676
 


--------------------------------------------------------------------------------------------------------


    POTLOK:  cpu time    0.1726: real time    0.1617


--------------------------------------------------------------------------------------------------------


 writing wavefunctions
     LOOP+:  cpu time   93.1705: real time   48.2617
    4ORBIT:  cpu time    0.0000: real time    0.0000

 Spin-Orbit-Coupling matrix elements

 Ion:    1  E_soc:     -0.0003287
 l=   1
     0.0000000    -0.0000548    -0.0000548
    -0.0000548     0.0000000    -0.0000548
    -0.0000548    -0.0000548     0.0000000
 l=   2
     0.0000000     0.0000000     0.0000000     0.0000000     0.0000000
     0.0000000     0.0000000     0.0000000     0.0000000     0.0000000
     0.0000000     0.0000000     0.0000000     0.0000000     0.0000000
     0.0000000     0.0000000     0.0000000     0.0000000     0.0000000
     0.0000000     0.0000000     0.0000000     0.0000000     0.0000000
 l=   3
     0.0000000     0.0000000     0.0000000     0.0000000     0.0000000     0.0000000     0.0000000
     0.0000000     0.0000000     0.0000000     0.0000000     0.0000000     0.0000000     0.0000000
     0.0000000     0.0000000     0.0000000     0.0000000     0.0000000     0.0000000     0.0000000
     0.0000000     0.0000000     0.0000000     0.0000000     0.0000000     0.0000000     0.0000000
     0.0000000     0.0000000     0.0000000     0.0000000     0.0000000     0.0000000     0.0000000
     0.0000000     0.0000000     0.0000000     0.0000000     0.0000000     0.0000000     0.0000000
     0.0000000     0.0000000     0.0000000     0.0000000     0.0000000     0.0000000     0.0000000

 Ion:    2  E_soc:     -0.0003287
 l=   1
     0.0000000    -0.0000548    -0.0000548
    -0.0000548     0.0000000    -0.0000548
    -0.0000548    -0.0000548     0.0000000
 l=   2
     0.0000000     0.0000000     0.0000000     0.0000000     0.0000000
     0.0000000     0.0000000     0.0000000     0.0000000     0.0000000
     0.0000000     0.0000000     0.0000000     0.0000000     0.0000000
     0.0000000     0.0000000     0.0000000     0.0000000     0.0000000
     0.0000000     0.0000000     0.0000000     0.0000000     0.0000000
 l=   3
     0.0000000     0.0000000     0.0000000     0.0000000     0.0000000     0.0000000     0.0000000
     0.0000000     0.0000000     0.0000000     0.0000000     0.0000000     0.0000000     0.0000000
     0.0000000     0.0000000     0.0000000     0.0000000     0.0000000     0.0000000     0.0000000
     0.0000000     0.0000000     0.0000000     0.0000000     0.0000000     0.0000000     0.0000000
     0.0000000     0.0000000     0.0000000     0.0000000     0.0000000     0.0000000     0.0000000
     0.0000000     0.0000000     0.0000000     0.0000000     0.0000000     0.0000000     0.0000000
     0.0000000     0.0000000     0.0000000     0.0000000     0.0000000     0.0000000     0.0000000

 Ion:    3  E_soc:     -0.0003287
 l=   1
     0.0000000    -0.0000548    -0.0000548
    -0.0000548     0.0000000    -0.0000548
    -0.0000548    -0.0000548     0.0000000
 l=   2
     0.0000000     0.0000000     0.0000000     0.0000000     0.0000000
     0.0000000     0.0000000     0.0000000     0.0000000     0.0000000
     0.0000000     0.0000000     0.0000000     0.0000000     0.0000000
     0.0000000     0.0000000     0.0000000     0.0000000     0.0000000
     0.0000000     0.0000000     0.0000000     0.0000000     0.0000000
 l=   3
     0.0000000     0.0000000     0.0000000     0.0000000     0.0000000     0.0000000     0.0000000
     0.0000000     0.0000000     0.0000000     0.0000000     0.0000000     0.0000000     0.0000000
     0.0000000     0.0000000     0.0000000     0.0000000     0.0000000     0.0000000     0.0000000
     0.0000000     0.0000000     0.0000000     0.0000000     0.0000000     0.0000000     0.0000000
     0.0000000     0.0000000     0.0000000     0.0000000     0.0000000     0.0000000     0.0000000
     0.0000000     0.0000000     0.0000000     0.0000000     0.0000000     0.0000000     0.0000000
     0.0000000     0.0000000     0.0000000     0.0000000     0.0000000     0.0000000     0.0000000

 Ion:    4  E_soc:     -0.0003287
 l=   1
     0.0000000    -0.0000548    -0.0000548
    -0.0000548     0.0000000    -0.0000548
    -0.0000548    -0.0000548     0.0000000
 l=   2
     0.0000000     0.0000000     0.0000000     0.0000000     0.0000000
     0.0000000     0.0000000     0.0000000     0.0000000     0.0000000
     0.0000000     0.0000000     0.0000000     0.0000000     0.0000000
     0.0000000     0.0000000     0.0000000     0.0000000     0.0000000
     0.0000000     0.0000000     0.0000000     0.0000000     0.0000000
 l=   3
     0.0000000     0.0000000     0.0000000     0.0000000     0.0000000     0.0000000     0.0000000
     0.0000000     0.0000000     0.0000000     0.0000000     0.0000000     0.0000000     0.0000000
     0.0000000     0.0000000     0.0000000     0.0000000     0.0000000     0.0000000     0.0000000
     0.0000000     0.0000000     0.0000000     0.0000000     0.0000000     0.0000000     0.0000000
     0.0000000     0.0000000     0.0000000     0.0000000     0.0000000     0.0000000     0.0000000
     0.0000000     0.0000000     0.0000000     0.0000000     0.0000000     0.0000000     0.0000000
     0.0000000     0.0000000     0.0000000     0.0000000     0.0000000     0.0000000     0.0000000

 Ion:    5  E_soc:     -0.0003287
 l=   1
     0.0000000    -0.0000548    -0.0000548
    -0.0000548     0.0000000    -0.0000548
    -0.0000548    -0.0000548     0.0000000
 l=   2
     0.0000000     0.0000000     0.0000000     0.0000000     0.0000000
     0.0000000     0.0000000     0.0000000     0.0000000     0.0000000
     0.0000000     0.0000000     0.0000000     0.0000000     0.0000000
     0.0000000     0.0000000     0.0000000     0.0000000     0.0000000
     0.0000000     0.0000000     0.0000000     0.0000000     0.0000000
 l=   3
     0.0000000     0.0000000     0.0000000     0.0000000     0.0000000     0.0000000     0.0000000
     0.0000000     0.0000000     0.0000000     0.0000000     0.0000000     0.0000000     0.0000000
     0.0000000     0.0000000     0.0000000     0.0000000     0.0000000     0.0000000     0.0000000
     0.0000000     0.0000000     0.0000000     0.0000000     0.0000000     0.0000000     0.0000000
     0.0000000     0.0000000     0.0000000     0.0000000     0.0000000     0.0000000     0.0000000
     0.0000000     0.0000000     0.0000000     0.0000000     0.0000000     0.0000000     0.0000000
     0.0000000     0.0000000     0.0000000     0.0000000     0.0000000     0.0000000     0.0000000

 Ion:    6  E_soc:     -0.0003287
 l=   1
     0.0000000    -0.0000548    -0.0000548
    -0.0000548     0.0000000    -0.0000548
    -0.0000548    -0.0000548     0.0000000
 l=   2
     0.0000000     0.0000000     0.0000000     0.0000000     0.0000000
     0.0000000     0.0000000     0.0000000     0.0000000     0.0000000
     0.0000000     0.0000000     0.0000000     0.0000000     0.0000000
     0.0000000     0.0000000     0.0000000     0.0000000     0.0000000
     0.0000000     0.0000000     0.0000000     0.0000000     0.0000000
 l=   3
     0.0000000     0.0000000     0.0000000     0.0000000     0.0000000     0.0000000     0.0000000
     0.0000000     0.0000000     0.0000000     0.0000000     0.0000000     0.0000000     0.0000000
     0.0000000     0.0000000     0.0000000     0.0000000     0.0000000     0.0000000     0.0000000
     0.0000000     0.0000000     0.0000000     0.0000000     0.0000000     0.0000000     0.0000000
     0.0000000     0.0000000     0.0000000     0.0000000     0.0000000     0.0000000     0.0000000
     0.0000000     0.0000000     0.0000000     0.0000000     0.0000000     0.0000000     0.0000000
     0.0000000     0.0000000     0.0000000     0.0000000     0.0000000     0.0000000     0.0000000

 Ion:    7  E_soc:     -0.0003287
 l=   1
     0.0000000    -0.0000548    -0.0000548
    -0.0000548     0.0000000    -0.0000548
    -0.0000548    -0.0000548     0.0000000
 l=   2
     0.0000000     0.0000000     0.0000000     0.0000000     0.0000000
     0.0000000     0.0000000     0.0000000     0.0000000     0.0000000
     0.0000000     0.0000000     0.0000000     0.0000000     0.0000000
     0.0000000     0.0000000     0.0000000     0.0000000     0.0000000
     0.0000000     0.0000000     0.0000000     0.0000000     0.0000000
 l=   3
     0.0000000     0.0000000     0.0000000     0.0000000     0.0000000     0.0000000     0.0000000
     0.0000000     0.0000000     0.0000000     0.0000000     0.0000000     0.0000000     0.0000000
     0.0000000     0.0000000     0.0000000     0.0000000     0.0000000     0.0000000     0.0000000
     0.0000000     0.0000000     0.0000000     0.0000000     0.0000000     0.0000000     0.0000000
     0.0000000     0.0000000     0.0000000     0.0000000     0.0000000     0.0000000     0.0000000
     0.0000000     0.0000000     0.0000000     0.0000000     0.0000000     0.0000000     0.0000000
     0.0000000     0.0000000     0.0000000     0.0000000     0.0000000     0.0000000     0.0000000

 Ion:    8  E_soc:     -0.0003287
 l=   1
     0.0000000    -0.0000548    -0.0000548
    -0.0000548     0.0000000    -0.0000548
    -0.0000548    -0.0000548     0.0000000
 l=   2
     0.0000000     0.0000000     0.0000000     0.0000000     0.0000000
     0.0000000     0.0000000     0.0000000     0.0000000     0.0000000
     0.0000000     0.0000000     0.0000000     0.0000000     0.0000000
     0.0000000     0.0000000     0.0000000     0.0000000     0.0000000
     0.0000000     0.0000000     0.0000000     0.0000000     0.0000000
 l=   3
     0.0000000     0.0000000     0.0000000     0.0000000     0.0000000     0.0000000     0.0000000
     0.0000000     0.0000000     0.0000000     0.0000000     0.0000000     0.0000000     0.0000000
     0.0000000     0.0000000     0.0000000     0.0000000     0.0000000     0.0000000     0.0000000
     0.0000000     0.0000000     0.0000000     0.0000000     0.0000000     0.0000000     0.0000000
     0.0000000     0.0000000     0.0000000     0.0000000     0.0000000     0.0000000     0.0000000
     0.0000000     0.0000000     0.0000000     0.0000000     0.0000000     0.0000000     0.0000000
     0.0000000     0.0000000     0.0000000     0.0000000     0.0000000     0.0000000     0.0000000

 total amount of memory used by VASP on root node    65824. kBytes
========================================================================

   base      :      30000. kBytes
   nonl-proj :       7837. kBytes
   fftplans  :        574. kBytes
   grid      :       3317. kBytes
   one-center:         98. kBytes
   wavefun   :      23998. kBytes
 
  
  
 General timing and accounting informations for this job:
 ========================================================
  
                  Total CPU time used (sec):       97.236
                            User time (sec):       94.988
                          System time (sec):        2.248
                         Elapsed time (sec):       50.508
  
                   Maximum memory used (kb):      149780.
                   Average memory used (kb):           0.
  
                          Minor page faults:        50512
                          Major page faults:            0
                 Voluntary context switches:         1520
