 vasp.5.4.1 05Feb16 (build Jun 14 2018 09:35:56) complex                        
  
 executed on           IFC91_ompi date 2022.04.18  16:44:04
 running on   16 total cores
 distrk:  each k-point on   16 cores,    1 groups
 distr:  one band on NCORES_PER_BAND=   1 cores,   16 groups


--------------------------------------------------------------------------------------------------------


 INCAR:
 POTCAR:   PAW_PBE Si 05Jan2001                   

 ----------------------------------------------------------------------------- 
|                                                                             |
|           W    W    AA    RRRRR   N    N  II  N    N   GGGG   !!!           |
|           W    W   A  A   R    R  NN   N  II  NN   N  G    G  !!!           |
|           W    W  A    A  R    R  N N  N  II  N N  N  G       !!!           |
|           W WW W  AAAAAA  RRRRR   N  N N  II  N  N N  G  GGG   !            |
|           WW  WW  A    A  R   R   N   NN  II  N   NN  G    G                |
|           W    W  A    A  R    R  N    N  II  N    N   GGGG   !!!           |
|                                                                             |
|      For optimal performance we recommend to set                            |
|        NCORE= 4 - approx SQRT( number of cores)                             |
|      NCORE specifies how many cores store one orbital (NPAR=cpu/NCORE).     |
|      This setting can  greatly improve the performance of VASP for DFT.     |
|      The default, NPAR=number of cores might be grossly inefficient         |
|      on modern multi-core architectures or massively parallel machines.     |
|      Do your own testing !!!!                                               |
|      Unfortunately you need to use the default for GW and RPA calculations. |
|      (for HF NCORE is supported but not extensively tested yet)             |
|                                                                             |
 ----------------------------------------------------------------------------- 

 POTCAR:   PAW_PBE Si 05Jan2001                   
   VRHFIN =Si: s2p2                                                             
   LEXCH  = PE                                                                  
   EATOM  =   103.0669 eV,    7.5752 Ry                                         
                                                                                
   TITEL  = PAW_PBE Si 05Jan2001                                                
   LULTRA =        F    use ultrasoft PP ?                                      
   IUNSCR =        1    unscreen: 0-lin 1-nonlin 2-no                           
   RPACOR =    1.500    partial core radius                                     
   POMASS =   28.085; ZVAL   =    4.000    mass and valenz                      
   RCORE  =    1.900    outmost cutoff radius                                   
   RWIGS  =    2.480; RWIGS  =    1.312    wigner-seitz radius (au A)           
   ENMAX  =  245.345; ENMIN  =  184.009 eV                                      
   ICORE  =        2    local potential                                         
   LCOR   =        T    correct aug charges                                     
   LPAW   =        T    paw PP                                                  
   EAUG   =  322.069                                                            
   DEXC   =    -.007                                                            
   RMAX   =    2.944    core radius for proj-oper                               
   RAUG   =    1.300    factor for augmentation sphere                          
   RDEP   =    1.993    radius for radial grids                                 
   QCUT   =   -4.246; QGAM   =    8.493    optimization parameters              
                                                                                
   Description                                                                  
     l     E      TYP  RCUT    TYP  RCUT                                        
     0   .000     23  1.900                                                     
     0   .000     23  1.900                                                     
     1   .000     23  1.900                                                     
     1   .000     23  1.900                                                     
     2   .000      7  1.900                                                     
  local pseudopotential read in
  partial core-charges read in
  atomic valenz-charges read in
  non local Contribution for L=           0  read in
    real space projection operators read in
  non local Contribution for L=           0  read in
    real space projection operators read in
  non local Contribution for L=           1  read in
    real space projection operators read in
  non local Contribution for L=           1  read in
    real space projection operators read in
    PAW grid and wavefunctions read in
 
   number of l-projection  operators is LMAX  =           4
   number of lm-projection operators is LMMAX =           8
 
 PAW_PBE Si 05Jan2001                   :
 energy of atom  1       EATOM= -103.0669
 kinetic energy error for atom=    0.0056 (will be added to EATOM!!)
 
 
 POSCAR: Si ! Bulk Si, Supercell                 
  positions in direct lattice
  No initial velocities read in
 exchange correlation table for  LEXCH =        8
   RHO(1)=    0.500       N(1)  =     2000
   RHO(2)=  100.500       N(2)  =     4000
 


--------------------------------------------------------------------------------------------------------


 ion  position               nearest neighbor table
   1  0.000  0.000  0.000-   5 2.35   6 2.35   7 2.35   8 2.35
   2  0.000  0.500  0.500-   5 2.35   6 2.35   7 2.35   8 2.35
   3  0.500  0.500  0.000-   5 2.35   6 2.35   7 2.35   8 2.35
   4  0.500  0.000  0.500-   5 2.35   6 2.35   7 2.35   8 2.35
   5  0.750  0.250  0.750-   1 2.35   2 2.35   3 2.35   4 2.35
   6  0.250  0.250  0.250-   1 2.35   2 2.35   3 2.35   4 2.35
   7  0.250  0.750  0.750-   1 2.35   2 2.35   3 2.35   4 2.35
   8  0.750  0.750  0.250-   1 2.35   2 2.35   3 2.35   4 2.35
 
  LATTYP: Found a simple cubic cell.
 ALAT       =     5.4300000000
  
  Lattice vectors:
  
 A1 = (   5.4300000000,   0.0000000000,   0.0000000000)
 A2 = (   0.0000000000,   5.4300000000,   0.0000000000)
 A3 = (   0.0000000000,   0.0000000000,   5.4300000000)


Analysis of symmetry for initial positions (statically):
=====================================================================
 Subroutine PRICEL returns following result:
 
  LATTYP: Found a face centered cubic cell.
 ALAT       =     5.4300000000
  
  Lattice vectors:
  
 A1 = (   2.7150000000,   2.7150000000,   0.0000000000)
 A2 = (   2.7150000000,   0.0000000000,  -2.7150000000)
 A3 = (   0.0000000000,   2.7150000000,  -2.7150000000)
 
   4 primitive cells build up your supercell.
 

 Routine SETGRP: Setting up the symmetry group for a 
 simple cubic supercell.


 Subroutine GETGRP returns: Found 48 space group operations
 (whereof 24 operations were pure point group operations)
 out of a pool of 48 trial point group operations.


The static configuration has the point symmetry T_d .
 The point group associated with its full space group is O_h .


Analysis of symmetry for dynamics (positions and initial velocities):
=====================================================================
 Subroutine PRICEL returns following result:
 
  LATTYP: Found a face centered cubic cell.
 ALAT       =     5.4300000000
  
  Lattice vectors:
  
 A1 = (   2.7150000000,   2.7150000000,   0.0000000000)
 A2 = (   2.7150000000,   0.0000000000,  -2.7150000000)
 A3 = (   0.0000000000,   2.7150000000,  -2.7150000000)
 
   4 primitive cells build up your supercell.
 

 Routine SETGRP: Setting up the symmetry group for a 
 simple cubic supercell.


 Subroutine GETGRP returns: Found 48 space group operations
 (whereof 24 operations were pure point group operations)
 out of a pool of 48 trial point group operations.


The dynamic configuration has the point symmetry T_d .
 The point group associated with its full space group is O_h .


Analysis of structural, dynamic, and magnetic symmetry:
=====================================================================
 Subroutine PRICEL returns following result:
 
  LATTYP: Found a face centered cubic cell.
 ALAT       =     5.4300000000
  
  Lattice vectors:
  
 A1 = (   2.7150000000,   2.7150000000,   0.0000000000)
 A2 = (   2.7150000000,   0.0000000000,  -2.7150000000)
 A3 = (   0.0000000000,   2.7150000000,  -2.7150000000)
 
   4 primitive cells build up your supercell.
 

 Routine SETGRP: Setting up the symmetry group for a 
 simple cubic supercell.


 Subroutine GETGRP returns: Found  6 space group operations
 (whereof  3 operations were pure point group operations)
 out of a pool of 48 trial point group operations.


The (compounded) configuration has the point symmetry C_3 .
 The point group associated with its full space group is S_6 .


 Subroutine INISYM returns: Found  6 space group operations
 (whereof  3 operations are pure point group operations),
 and found     4 'primitive' translations

 
 
 KPOINTS: K-Points                                

Automatic generation of k-mesh.
Space group operators:
 irot       det(A)        alpha          n_x          n_y          n_z        tau_x        tau_y        tau_z
    1     1.000000     0.000001     1.000000     0.000000     0.000000     0.000000     0.000000     0.000000
    2     1.000000   120.000000    -0.577350    -0.577350    -0.577350     0.000000     0.000000     0.000000
    3     1.000000   120.000000     0.577350     0.577350     0.577350     0.000000     0.000000     0.000000
    4    -1.000000     0.000001     1.000000     0.000000     0.000000     0.750000     0.750000    -0.750000
    5    -1.000000   120.000000    -0.577350    -0.577350    -0.577350     0.750000     0.750000    -0.750000
    6    -1.000000   120.000000     0.577350     0.577350     0.577350     0.750000     0.750000    -0.750000
 
 Subroutine IBZKPT returns following result:
 ===========================================
 
 Found     90 irreducible k-points:
 
 Following reciprocal coordinates:
            Coordinates               Weight
  0.000000  0.000000  0.000000      1.000000
  0.125000  0.000000  0.000000      6.000000
  0.250000  0.000000  0.000000      6.000000
  0.375000  0.000000  0.000000      6.000000
  0.500000  0.000000  0.000000      3.000000
  0.125000  0.125000  0.000000      6.000000
  0.250000  0.125000  0.000000      6.000000
  0.375000  0.125000  0.000000      6.000000
  0.500000  0.125000  0.000000      6.000000
 -0.375000  0.125000  0.000000      6.000000
 -0.250000  0.125000  0.000000      6.000000
 -0.125000  0.125000  0.000000      6.000000
  0.125000  0.250000  0.000000      6.000000
  0.250000  0.250000  0.000000      6.000000
  0.375000  0.250000  0.000000      6.000000
  0.500000  0.250000  0.000000      6.000000
 -0.375000  0.250000  0.000000      6.000000
 -0.250000  0.250000  0.000000      6.000000
 -0.125000  0.250000  0.000000      6.000000
  0.125000  0.375000  0.000000      6.000000
  0.250000  0.375000  0.000000      6.000000
  0.375000  0.375000  0.000000      6.000000
  0.500000  0.375000  0.000000      6.000000
 -0.375000  0.375000  0.000000      6.000000
 -0.250000  0.375000  0.000000      6.000000
 -0.125000  0.375000  0.000000      6.000000
  0.125000  0.500000  0.000000      6.000000
  0.250000  0.500000  0.000000      6.000000
  0.375000  0.500000  0.000000      6.000000
  0.500000  0.500000  0.000000      3.000000
  0.125000  0.125000  0.125000      2.000000
  0.250000  0.125000  0.125000      6.000000
  0.375000  0.125000  0.125000      6.000000
  0.500000  0.125000  0.125000      6.000000
 -0.375000  0.125000  0.125000      6.000000
 -0.250000  0.125000  0.125000      6.000000
 -0.125000  0.125000  0.125000      6.000000
  0.250000  0.250000  0.125000      6.000000
  0.375000  0.250000  0.125000      6.000000
  0.500000  0.250000  0.125000      6.000000
 -0.375000  0.250000  0.125000      6.000000
 -0.250000  0.250000  0.125000      6.000000
 -0.125000  0.250000  0.125000      6.000000
  0.250000  0.375000  0.125000      6.000000
  0.375000  0.375000  0.125000      6.000000
  0.500000  0.375000  0.125000      6.000000
 -0.375000  0.375000  0.125000      6.000000
 -0.250000  0.375000  0.125000      6.000000
 -0.125000  0.375000  0.125000      6.000000
  0.250000  0.500000  0.125000      6.000000
  0.375000  0.500000  0.125000      6.000000
  0.500000  0.500000  0.125000      6.000000
 -0.375000  0.500000  0.125000      6.000000
 -0.250000  0.500000  0.125000      6.000000
 -0.125000  0.500000  0.125000      6.000000
  0.250000 -0.375000  0.125000      6.000000
  0.375000 -0.375000  0.125000      6.000000
  0.500000 -0.375000  0.125000      6.000000
 -0.375000 -0.375000  0.125000      6.000000
 -0.250000 -0.375000  0.125000      6.000000
 -0.125000 -0.375000  0.125000      6.000000
  0.250000 -0.250000  0.125000      6.000000
  0.375000 -0.250000  0.125000      6.000000
  0.500000 -0.250000  0.125000      6.000000
 -0.375000 -0.250000  0.125000      6.000000
 -0.250000 -0.250000  0.125000      6.000000
 -0.125000 -0.250000  0.125000      6.000000
  0.250000  0.250000  0.250000      2.000000
  0.375000  0.250000  0.250000      6.000000
  0.500000  0.250000  0.250000      6.000000
 -0.375000  0.250000  0.250000      6.000000
 -0.250000  0.250000  0.250000      6.000000
  0.375000  0.375000  0.250000      6.000000
  0.500000  0.375000  0.250000      6.000000
 -0.375000  0.375000  0.250000      6.000000
 -0.250000  0.375000  0.250000      6.000000
  0.375000  0.500000  0.250000      6.000000
  0.500000  0.500000  0.250000      6.000000
 -0.375000  0.500000  0.250000      6.000000
 -0.250000  0.500000  0.250000      6.000000
  0.375000 -0.375000  0.250000      6.000000
  0.500000 -0.375000  0.250000      6.000000
 -0.375000 -0.375000  0.250000      6.000000
 -0.250000 -0.375000  0.250000      6.000000
  0.375000  0.375000  0.375000      2.000000
  0.500000  0.375000  0.375000      6.000000
 -0.375000  0.375000  0.375000      6.000000
  0.500000  0.500000  0.375000      6.000000
 -0.375000  0.500000  0.375000      6.000000
  0.500000  0.500000  0.500000      1.000000
 
 Following cartesian coordinates:
            Coordinates               Weight
  0.000000  0.000000  0.000000      1.000000
  0.125000  0.000000  0.000000      6.000000
  0.250000  0.000000  0.000000      6.000000
  0.375000  0.000000  0.000000      6.000000
  0.500000  0.000000  0.000000      3.000000
  0.125000  0.125000  0.000000      6.000000
  0.250000  0.125000  0.000000      6.000000
  0.375000  0.125000  0.000000      6.000000
  0.500000  0.125000  0.000000      6.000000
 -0.375000  0.125000  0.000000      6.000000
 -0.250000  0.125000  0.000000      6.000000
 -0.125000  0.125000  0.000000      6.000000
  0.125000  0.250000  0.000000      6.000000
  0.250000  0.250000  0.000000      6.000000
  0.375000  0.250000  0.000000      6.000000
  0.500000  0.250000  0.000000      6.000000
 -0.375000  0.250000  0.000000      6.000000
 -0.250000  0.250000  0.000000      6.000000
 -0.125000  0.250000  0.000000      6.000000
  0.125000  0.375000  0.000000      6.000000
  0.250000  0.375000  0.000000      6.000000
  0.375000  0.375000  0.000000      6.000000
  0.500000  0.375000  0.000000      6.000000
 -0.375000  0.375000  0.000000      6.000000
 -0.250000  0.375000  0.000000      6.000000
 -0.125000  0.375000  0.000000      6.000000
  0.125000  0.500000  0.000000      6.000000
  0.250000  0.500000  0.000000      6.000000
  0.375000  0.500000  0.000000      6.000000
  0.500000  0.500000  0.000000      3.000000
  0.125000  0.125000  0.125000      2.000000
  0.250000  0.125000  0.125000      6.000000
  0.375000  0.125000  0.125000      6.000000
  0.500000  0.125000  0.125000      6.000000
 -0.375000  0.125000  0.125000      6.000000
 -0.250000  0.125000  0.125000      6.000000
 -0.125000  0.125000  0.125000      6.000000
  0.250000  0.250000  0.125000      6.000000
  0.375000  0.250000  0.125000      6.000000
  0.500000  0.250000  0.125000      6.000000
 -0.375000  0.250000  0.125000      6.000000
 -0.250000  0.250000  0.125000      6.000000
 -0.125000  0.250000  0.125000      6.000000
  0.250000  0.375000  0.125000      6.000000
  0.375000  0.375000  0.125000      6.000000
  0.500000  0.375000  0.125000      6.000000
 -0.375000  0.375000  0.125000      6.000000
 -0.250000  0.375000  0.125000      6.000000
 -0.125000  0.375000  0.125000      6.000000
  0.250000  0.500000  0.125000      6.000000
  0.375000  0.500000  0.125000      6.000000
  0.500000  0.500000  0.125000      6.000000
 -0.375000  0.500000  0.125000      6.000000
 -0.250000  0.500000  0.125000      6.000000
 -0.125000  0.500000  0.125000      6.000000
  0.250000 -0.375000  0.125000      6.000000
  0.375000 -0.375000  0.125000      6.000000
  0.500000 -0.375000  0.125000      6.000000
 -0.375000 -0.375000  0.125000      6.000000
 -0.250000 -0.375000  0.125000      6.000000
 -0.125000 -0.375000  0.125000      6.000000
  0.250000 -0.250000  0.125000      6.000000
  0.375000 -0.250000  0.125000      6.000000
  0.500000 -0.250000  0.125000      6.000000
 -0.375000 -0.250000  0.125000      6.000000
 -0.250000 -0.250000  0.125000      6.000000
 -0.125000 -0.250000  0.125000      6.000000
  0.250000  0.250000  0.250000      2.000000
  0.375000  0.250000  0.250000      6.000000
  0.500000  0.250000  0.250000      6.000000
 -0.375000  0.250000  0.250000      6.000000
 -0.250000  0.250000  0.250000      6.000000
  0.375000  0.375000  0.250000      6.000000
  0.500000  0.375000  0.250000      6.000000
 -0.375000  0.375000  0.250000      6.000000
 -0.250000  0.375000  0.250000      6.000000
  0.375000  0.500000  0.250000      6.000000
  0.500000  0.500000  0.250000      6.000000
 -0.375000  0.500000  0.250000      6.000000
 -0.250000  0.500000  0.250000      6.000000
  0.375000 -0.375000  0.250000      6.000000
  0.500000 -0.375000  0.250000      6.000000
 -0.375000 -0.375000  0.250000      6.000000
 -0.250000 -0.375000  0.250000      6.000000
  0.375000  0.375000  0.375000      2.000000
  0.500000  0.375000  0.375000      6.000000
 -0.375000  0.375000  0.375000      6.000000
  0.500000  0.500000  0.375000      6.000000
 -0.375000  0.500000  0.375000      6.000000
  0.500000  0.500000  0.500000      1.000000
 
 TETIRR: Found   1437 inequivalent tetrahedra from     3072


--------------------------------------------------------------------------------------------------------




 Dimension of arrays:
   k-points           NKPTS =     90   k-points in BZ     NKDIM =     90   number of bands    NBANDS=     64
   number of dos      NEDOS =    301   number of ions     NIONS =      8
   non local maximal  LDIM  =      4   non local SUM 2l+1 LMDIM =      8
   total plane-waves  NPLWV =  13824
   max r-space proj   IRMAX =      1   max aug-charges    IRDMAX=   3086
   dimension x,y,z NGX =    24 NGY =   24 NGZ =   24
   dimension x,y,z NGXF=    48 NGYF=   48 NGZF=   48
   support grid    NGXF=    48 NGYF=   48 NGZF=   48
   ions per type =               8
 NGX,Y,Z   is equivalent  to a cutoff of   7.35,  7.35,  7.35 a.u.
 NGXF,Y,Z  is equivalent  to a cutoff of  14.70, 14.70, 14.70 a.u.


 I would recommend the setting:
   dimension x,y,z NGX =    21 NGY =   21 NGZ =   21
 SYSTEM =  Bulk Silicon - Self Consistent calculat 
 POSCAR =  Si ! Bulk Si, Supercell                 

 Startparameter for this run:
   NWRITE =      2    write-flag & timer
   PREC   = normal    normal or accurate (medium, high low for compatibility)
   ISTART =      0    job   : 0-new  1-cont  2-samecut
   ICHARG =      2    charge: 1-file 2-atom 10-const
   ISPIN  =      1    spin polarized calculation?
   LNONCOLLINEAR =      T non collinear calculations
   LSORBIT =      T    spin-orbit coupling
   INIWAV =      1    electr: 0-lowe 1-rand  2-diag
   LASPH  =      F    aspherical Exc in radial PAW
   METAGGA=      F    non-selfconsistent MetaGGA calc.

 Electronic Relaxation 1
   ENCUT  =  245.3 eV  18.03 Ry    4.25 a.u.   6.93  6.93  6.93*2*pi/ulx,y,z
   ENINI  =  245.3     initial cutoff
   ENAUG  =  322.1 eV  augmentation charge cutoff
   NELM   =     60;   NELMIN=  8; NELMDL= -5     # of ELM steps 
   EDIFF  = 0.1E-05   stopping-criterion for ELM
   LREAL  =      F    real-space projection
   NLSPLINE    = F    spline interpolate recip. space projectors
   LCOMPAT=      F    compatible to vasp.4.4
   GGA_COMPAT  = T    GGA compatible to vasp.4.4-vasp.4.6
   LMAXPAW     = -100 max onsite density
   LMAXMIX     =    2 max onsite mixed and CHGCAR
   VOSKOWN=      0    Vosko Wilk Nusair interpolation
   ROPT   =    0.00000
 Ionic relaxation
   EDIFFG = 0.1E-04   stopping-criterion for IOM
   NSW    =      0    number of steps for IOM
   NBLOCK =      1;   KBLOCK =      1    inner block; outer block 
   IBRION =     -1    ionic relax: 0-MD 1-quasi-New 2-CG
   NFREE  =      0    steps in history (QN), initial steepest desc. (CG)
   ISIF   =      2    stress and relaxation
   IWAVPR =     10    prediction:  0-non 1-charg 2-wave 3-comb
   ISYM   =      2    0-nonsym 1-usesym 2-fastsym
   LCORR  =      T    Harris-Foulkes like correction to forces

   POTIM  = 0.5000    time-step for ionic-motion
   TEIN   =    0.0    initial temperature
   TEBEG  =    0.0;   TEEND  =   0.0 temperature during run
   SMASS  =  -3.00    Nose mass-parameter (am)
   estimated Nose-frequenzy (Omega)   =  0.10E-29 period in steps =****** mass=  -0.674E-27a.u.
   SCALEE = 1.0000    scale energy and forces
   NPACO  =    256;   APACO  = 16.0  distance and # of slots for P.C.
   PSTRESS=    0.0 pullay stress

  Mass of Ions in am
   POMASS =  28.09
  Ionic Valenz
   ZVAL   =   4.00
  Atomic Wigner-Seitz radii
   RWIGS  =  -1.00
  virtual crystal weights 
   VCA    =   1.00
   NELECT =      32.0000    total number of electrons
   NUPDOWN=      -1.0000    fix difference up-down

 DOS related values:
   EMIN   =  10.00;   EMAX   =-10.00  energy-range for DOS
   EFERMI =   0.00
   ISMEAR =    -5;   SIGMA  =   0.20  broadening in eV -4-tet -1-fermi 0-gaus

 Electronic relaxation 2 (details)
   IALGO  =     68    algorithm
   LDIAG  =      T    sub-space diagonalisation (order eigenvalues)
   LSUBROT=      F    optimize rotation matrix (better conditioning)
   TURBO    =      0    0=normal 1=particle mesh
   IRESTART =      0    0=no restart 2=restart with 2 vectors
   NREBOOT  =      0    no. of reboots
   NMIN     =      0    reboot dimension
   EREF     =   0.00    reference energy to select bands
   IMIX   =      4    mixing-type and parameters
     AMIX     =   0.40;   BMIX     =  1.00
     AMIX_MAG =   1.60;   BMIX_MAG =  1.00
     AMIN     =   0.10
     WC   =   100.;   INIMIX=   1;  MIXPRE=   1;  MAXMIX= -45

 Intra band minimization:
   WEIMIN = 0.0000     energy-eigenvalue tresh-hold
   EBREAK =  0.39E-08  absolut break condition
   DEPER  =   0.30     relativ break condition  

   TIME   =   0.40     timestep for ELM

  volume/ion in A,a.u.               =      20.01       135.05
  Fermi-wavevector in a.u.,A,eV,Ry     =   0.957176  1.808800 12.465458  0.916185
  Thomas-Fermi vector in A             =   2.086170
 
 Write flags
   LWAVE  =      F    write WAVECAR
   LCHARG =      T    write CHGCAR
   LVTOT  =      F    write LOCPOT, total local potential
   LVHAR  =      F    write LOCPOT, Hartree potential only
   LELF   =      F    write electronic localiz. function (ELF)
   LORBIT =      0    0 simple, 1 ext, 2 COOP (PROOUT)


 Dipole corrections
   LMONO  =      F    monopole corrections only (constant potential shift)
   LDIPOL =      F    correct potential (dipole corrections)
   IDIPOL =      0    1-x, 2-y, 3-z, 4-all directions 
   EPSILON=  1.0000000 bulk dielectric constant

 Exchange correlation treatment:
   GGA     =    --    GGA type
   LEXCH   =     8    internal setting for exchange type
   VOSKOWN=      0    Vosko Wilk Nusair interpolation
   LHFCALC =     F    Hartree Fock is set to
   LHFONE  =     F    Hartree Fock one center treatment
   AEXX    =    0.0000 exact exchange contribution

 Linear response parameters
   LEPSILON=     F    determine dielectric tensor
   LRPA    =     F    only Hartree local field effects (RPA)
   LNABLA  =     F    use nabla operator in PAW spheres
   LVEL    =     F    velocity operator in full k-point grid
   LINTERFAST=   F  fast interpolation
   KINTER  =     0    interpolate to denser k-point grid
   CSHIFT  =0.1000    complex shift for real part using Kramers Kronig
   OMEGAMAX=  -1.0    maximum frequency
   DEG_THRESHOLD= 0.2000000E-02 threshold for treating states as degnerate
   RTIME   =    0.100 relaxation time in fs

 Orbital magnetization related:
   ORBITALMAG=     F  switch on orbital magnetization
   LCHIMAG   =     F  perturbation theory with respect to B field
   DQ        =  0.001000  dq finite difference perturbation B field



--------------------------------------------------------------------------------------------------------


 Static calculation
 charge density and potential will be updated during run
 non collinear spin polarized calculation
 RMM-DIIS sequential band-by-band and
  variant of blocked Davidson during initial phase
 perform sub-space diagonalisation
    before iterative eigenvector-optimisation
 modified Broyden-mixing scheme, WC =      100.0
 initial mixing is a Kerker type mixing with AMIX =  0.4000 and BMIX =      1.0000
 Hartree-type preconditioning will be used
 using additional bands           48
 reciprocal scheme for non local part
 use partial core corrections
 calculate Harris-corrections to forces 
   (improved forces if not selfconsistent)
 use gradient corrections 
 use of overlap-Matrix (Vanderbilt PP)
 Fermi weights with tetrahedron method with Bloechl corrections


--------------------------------------------------------------------------------------------------------


  energy-cutoff  :      245.34
  volume of cell :      160.10
      direct lattice vectors                 reciprocal lattice vectors
     5.430000000  0.000000000  0.000000000     0.184162063  0.000000000  0.000000000
     0.000000000  5.430000000  0.000000000     0.000000000  0.184162063  0.000000000
     0.000000000  0.000000000  5.430000000     0.000000000  0.000000000  0.184162063

  length of vectors
     5.430000000  5.430000000  5.430000000     0.184162063  0.184162063  0.184162063


 
 k-points in units of 2pi/SCALE and weight: K-Points                                
   0.00000000  0.00000000  0.00000000       0.002
   0.12500000  0.00000000  0.00000000       0.012
   0.25000000  0.00000000  0.00000000       0.012
   0.37500000  0.00000000  0.00000000       0.012
   0.50000000  0.00000000  0.00000000       0.006
   0.12500000  0.12500000  0.00000000       0.012
   0.25000000  0.12500000  0.00000000       0.012
   0.37500000  0.12500000  0.00000000       0.012
   0.50000000  0.12500000  0.00000000       0.012
  -0.37500000  0.12500000  0.00000000       0.012
  -0.25000000  0.12500000  0.00000000       0.012
  -0.12500000  0.12500000  0.00000000       0.012
   0.12500000  0.25000000  0.00000000       0.012
   0.25000000  0.25000000  0.00000000       0.012
   0.37500000  0.25000000  0.00000000       0.012
   0.50000000  0.25000000  0.00000000       0.012
  -0.37500000  0.25000000  0.00000000       0.012
  -0.25000000  0.25000000  0.00000000       0.012
  -0.12500000  0.25000000  0.00000000       0.012
   0.12500000  0.37500000  0.00000000       0.012
   0.25000000  0.37500000  0.00000000       0.012
   0.37500000  0.37500000  0.00000000       0.012
   0.50000000  0.37500000  0.00000000       0.012
  -0.37500000  0.37500000  0.00000000       0.012
  -0.25000000  0.37500000  0.00000000       0.012
  -0.12500000  0.37500000  0.00000000       0.012
   0.12500000  0.50000000  0.00000000       0.012
   0.25000000  0.50000000  0.00000000       0.012
   0.37500000  0.50000000  0.00000000       0.012
   0.50000000  0.50000000  0.00000000       0.006
   0.12500000  0.12500000  0.12500000       0.004
   0.25000000  0.12500000  0.12500000       0.012
   0.37500000  0.12500000  0.12500000       0.012
   0.50000000  0.12500000  0.12500000       0.012
  -0.37500000  0.12500000  0.12500000       0.012
  -0.25000000  0.12500000  0.12500000       0.012
  -0.12500000  0.12500000  0.12500000       0.012
   0.25000000  0.25000000  0.12500000       0.012
   0.37500000  0.25000000  0.12500000       0.012
   0.50000000  0.25000000  0.12500000       0.012
  -0.37500000  0.25000000  0.12500000       0.012
  -0.25000000  0.25000000  0.12500000       0.012
  -0.12500000  0.25000000  0.12500000       0.012
   0.25000000  0.37500000  0.12500000       0.012
   0.37500000  0.37500000  0.12500000       0.012
   0.50000000  0.37500000  0.12500000       0.012
  -0.37500000  0.37500000  0.12500000       0.012
  -0.25000000  0.37500000  0.12500000       0.012
  -0.12500000  0.37500000  0.12500000       0.012
   0.25000000  0.50000000  0.12500000       0.012
   0.37500000  0.50000000  0.12500000       0.012
   0.50000000  0.50000000  0.12500000       0.012
  -0.37500000  0.50000000  0.12500000       0.012
  -0.25000000  0.50000000  0.12500000       0.012
  -0.12500000  0.50000000  0.12500000       0.012
   0.25000000 -0.37500000  0.12500000       0.012
   0.37500000 -0.37500000  0.12500000       0.012
   0.50000000 -0.37500000  0.12500000       0.012
  -0.37500000 -0.37500000  0.12500000       0.012
  -0.25000000 -0.37500000  0.12500000       0.012
  -0.12500000 -0.37500000  0.12500000       0.012
   0.25000000 -0.25000000  0.12500000       0.012
   0.37500000 -0.25000000  0.12500000       0.012
   0.50000000 -0.25000000  0.12500000       0.012
  -0.37500000 -0.25000000  0.12500000       0.012
  -0.25000000 -0.25000000  0.12500000       0.012
  -0.12500000 -0.25000000  0.12500000       0.012
   0.25000000  0.25000000  0.25000000       0.004
   0.37500000  0.25000000  0.25000000       0.012
   0.50000000  0.25000000  0.25000000       0.012
  -0.37500000  0.25000000  0.25000000       0.012
  -0.25000000  0.25000000  0.25000000       0.012
   0.37500000  0.37500000  0.25000000       0.012
   0.50000000  0.37500000  0.25000000       0.012
  -0.37500000  0.37500000  0.25000000       0.012
  -0.25000000  0.37500000  0.25000000       0.012
   0.37500000  0.50000000  0.25000000       0.012
   0.50000000  0.50000000  0.25000000       0.012
  -0.37500000  0.50000000  0.25000000       0.012
  -0.25000000  0.50000000  0.25000000       0.012
   0.37500000 -0.37500000  0.25000000       0.012
   0.50000000 -0.37500000  0.25000000       0.012
  -0.37500000 -0.37500000  0.25000000       0.012
  -0.25000000 -0.37500000  0.25000000       0.012
   0.37500000  0.37500000  0.37500000       0.004
   0.50000000  0.37500000  0.37500000       0.012
  -0.37500000  0.37500000  0.37500000       0.012
   0.50000000  0.50000000  0.37500000       0.012
  -0.37500000  0.50000000  0.37500000       0.012
   0.50000000  0.50000000  0.50000000       0.002
 
 k-points in reciprocal lattice and weights: K-Points                                
   0.00000000  0.00000000  0.00000000       0.002
   0.12500000  0.00000000  0.00000000       0.012
   0.25000000  0.00000000  0.00000000       0.012
   0.37500000  0.00000000  0.00000000       0.012
   0.50000000  0.00000000  0.00000000       0.006
   0.12500000  0.12500000  0.00000000       0.012
   0.25000000  0.12500000  0.00000000       0.012
   0.37500000  0.12500000  0.00000000       0.012
   0.50000000  0.12500000  0.00000000       0.012
  -0.37500000  0.12500000  0.00000000       0.012
  -0.25000000  0.12500000  0.00000000       0.012
  -0.12500000  0.12500000  0.00000000       0.012
   0.12500000  0.25000000  0.00000000       0.012
   0.25000000  0.25000000  0.00000000       0.012
   0.37500000  0.25000000  0.00000000       0.012
   0.50000000  0.25000000  0.00000000       0.012
  -0.37500000  0.25000000  0.00000000       0.012
  -0.25000000  0.25000000  0.00000000       0.012
  -0.12500000  0.25000000  0.00000000       0.012
   0.12500000  0.37500000  0.00000000       0.012
   0.25000000  0.37500000  0.00000000       0.012
   0.37500000  0.37500000  0.00000000       0.012
   0.50000000  0.37500000  0.00000000       0.012
  -0.37500000  0.37500000  0.00000000       0.012
  -0.25000000  0.37500000  0.00000000       0.012
  -0.12500000  0.37500000  0.00000000       0.012
   0.12500000  0.50000000  0.00000000       0.012
   0.25000000  0.50000000  0.00000000       0.012
   0.37500000  0.50000000  0.00000000       0.012
   0.50000000  0.50000000  0.00000000       0.006
   0.12500000  0.12500000  0.12500000       0.004
   0.25000000  0.12500000  0.12500000       0.012
   0.37500000  0.12500000  0.12500000       0.012
   0.50000000  0.12500000  0.12500000       0.012
  -0.37500000  0.12500000  0.12500000       0.012
  -0.25000000  0.12500000  0.12500000       0.012
  -0.12500000  0.12500000  0.12500000       0.012
   0.25000000  0.25000000  0.12500000       0.012
   0.37500000  0.25000000  0.12500000       0.012
   0.50000000  0.25000000  0.12500000       0.012
  -0.37500000  0.25000000  0.12500000       0.012
  -0.25000000  0.25000000  0.12500000       0.012
  -0.12500000  0.25000000  0.12500000       0.012
   0.25000000  0.37500000  0.12500000       0.012
   0.37500000  0.37500000  0.12500000       0.012
   0.50000000  0.37500000  0.12500000       0.012
  -0.37500000  0.37500000  0.12500000       0.012
  -0.25000000  0.37500000  0.12500000       0.012
  -0.12500000  0.37500000  0.12500000       0.012
   0.25000000  0.50000000  0.12500000       0.012
   0.37500000  0.50000000  0.12500000       0.012
   0.50000000  0.50000000  0.12500000       0.012
  -0.37500000  0.50000000  0.12500000       0.012
  -0.25000000  0.50000000  0.12500000       0.012
  -0.12500000  0.50000000  0.12500000       0.012
   0.25000000 -0.37500000  0.12500000       0.012
   0.37500000 -0.37500000  0.12500000       0.012
   0.50000000 -0.37500000  0.12500000       0.012
  -0.37500000 -0.37500000  0.12500000       0.012
  -0.25000000 -0.37500000  0.12500000       0.012
  -0.12500000 -0.37500000  0.12500000       0.012
   0.25000000 -0.25000000  0.12500000       0.012
   0.37500000 -0.25000000  0.12500000       0.012
   0.50000000 -0.25000000  0.12500000       0.012
  -0.37500000 -0.25000000  0.12500000       0.012
  -0.25000000 -0.25000000  0.12500000       0.012
  -0.12500000 -0.25000000  0.12500000       0.012
   0.25000000  0.25000000  0.25000000       0.004
   0.37500000  0.25000000  0.25000000       0.012
   0.50000000  0.25000000  0.25000000       0.012
  -0.37500000  0.25000000  0.25000000       0.012
  -0.25000000  0.25000000  0.25000000       0.012
   0.37500000  0.37500000  0.25000000       0.012
   0.50000000  0.37500000  0.25000000       0.012
  -0.37500000  0.37500000  0.25000000       0.012
  -0.25000000  0.37500000  0.25000000       0.012
   0.37500000  0.50000000  0.25000000       0.012
   0.50000000  0.50000000  0.25000000       0.012
  -0.37500000  0.50000000  0.25000000       0.012
  -0.25000000  0.50000000  0.25000000       0.012
   0.37500000 -0.37500000  0.25000000       0.012
   0.50000000 -0.37500000  0.25000000       0.012
  -0.37500000 -0.37500000  0.25000000       0.012
  -0.25000000 -0.37500000  0.25000000       0.012
   0.37500000  0.37500000  0.37500000       0.004
   0.50000000  0.37500000  0.37500000       0.012
  -0.37500000  0.37500000  0.37500000       0.012
   0.50000000  0.50000000  0.37500000       0.012
  -0.37500000  0.50000000  0.37500000       0.012
   0.50000000  0.50000000  0.50000000       0.002
 
 position of ions in fractional coordinates (direct lattice) 
   0.00000000  0.00000000  0.00000000
   0.00000000  0.50000000  0.50000000
   0.50000000  0.50000000  0.00000000
   0.50000000  0.00000000  0.50000000
   0.75000000  0.25000000  0.75000000
   0.25000000  0.25000000  0.25000000
   0.25000000  0.75000000  0.75000000
   0.75000000  0.75000000  0.25000000
 
 position of ions in cartesian coordinates  (Angst):
   0.00000000  0.00000000  0.00000000
   0.00000000  2.71500000  2.71500000
   2.71500000  2.71500000  0.00000000
   2.71500000  0.00000000  2.71500000
   4.07250000  1.35750000  4.07250000
   1.35750000  1.35750000  1.35750000
   1.35750000  4.07250000  4.07250000
   4.07250000  4.07250000  1.35750000
 
 Euler angles ALPHA=     0.0000000  BETA=     0.0000000

 transformation matrix from SAXIS to cartesian coordinates
 ---------------------------------------------------------
     1.0000000 m_x     0.0000000 m_y     0.0000000 m_z
     0.0000000 m_x     1.0000000 m_y     0.0000000 m_z
     0.0000000 m_x     0.0000000 m_y     1.0000000 m_z

 transformation matrix from cartesian coordinates to SAXIS
 ---------------------------------------------------------
     1.0000000 m_x     0.0000000 m_y     0.0000000 m_z
     0.0000000 m_x     1.0000000 m_y     0.0000000 m_z
     0.0000000 m_x     0.0000000 m_y     1.0000000 m_z




--------------------------------------------------------------------------------------------------------


 k-point  1 :   0.0000 0.0000 0.0000  plane waves:    2730
 k-point  2 :   0.1250 0.0000 0.0000  plane waves:    2740
 k-point  3 :   0.2500 0.0000 0.0000  plane waves:    2812
 k-point  4 :   0.3750 0.0000 0.0000  plane waves:    2796
 k-point  5 :   0.5000 0.0000 0.0000  plane waves:    2812
 k-point  6 :   0.1250 0.1250 0.0000  plane waves:    2776
 k-point  7 :   0.2500 0.1250 0.0000  plane waves:    2786
 k-point  8 :   0.3750 0.1250 0.0000  plane waves:    2784
 k-point  9 :   0.5000 0.1250 0.0000  plane waves:    2812
 k-point 10 :  -0.3750 0.1250 0.0000  plane waves:    2784
 k-point 11 :  -0.2500 0.1250 0.0000  plane waves:    2786
 k-point 12 :  -0.1250 0.1250 0.0000  plane waves:    2776
 k-point 13 :   0.1250 0.2500 0.0000  plane waves:    2786
 k-point 14 :   0.2500 0.2500 0.0000  plane waves:    2752
 k-point 15 :   0.3750 0.2500 0.0000  plane waves:    2792
 k-point 16 :   0.5000 0.2500 0.0000  plane waves:    2780
 k-point 17 :  -0.3750 0.2500 0.0000  plane waves:    2792
 k-point 18 :  -0.2500 0.2500 0.0000  plane waves:    2752
 k-point 19 :  -0.1250 0.2500 0.0000  plane waves:    2786
 k-point 20 :   0.1250 0.3750 0.0000  plane waves:    2784
 k-point 21 :   0.2500 0.3750 0.0000  plane waves:    2792
 k-point 22 :   0.3750 0.3750 0.0000  plane waves:    2800
 k-point 23 :   0.5000 0.3750 0.0000  plane waves:    2792
 k-point 24 :  -0.3750 0.3750 0.0000  plane waves:    2800
 k-point 25 :  -0.2500 0.3750 0.0000  plane waves:    2792
 k-point 26 :  -0.1250 0.3750 0.0000  plane waves:    2784
 k-point 27 :   0.1250 0.5000 0.0000  plane waves:    2812
 k-point 28 :   0.2500 0.5000 0.0000  plane waves:    2780
 k-point 29 :   0.3750 0.5000 0.0000  plane waves:    2792
 k-point 30 :   0.5000 0.5000 0.0000  plane waves:    2744
 k-point 31 :   0.1250 0.1250 0.1250  plane waves:    2782
 k-point 32 :   0.2500 0.1250 0.1250  plane waves:    2794
 k-point 33 :   0.3750 0.1250 0.1250  plane waves:    2784
 k-point 34 :   0.5000 0.1250 0.1250  plane waves:    2820
 k-point 35 :  -0.3750 0.1250 0.1250  plane waves:    2784
 k-point 36 :  -0.2500 0.1250 0.1250  plane waves:    2794
 k-point 37 :  -0.1250 0.1250 0.1250  plane waves:    2782
 k-point 38 :   0.2500 0.2500 0.1250  plane waves:    2786
 k-point 39 :   0.3750 0.2500 0.1250  plane waves:    2784
 k-point 40 :   0.5000 0.2500 0.1250  plane waves:    2804
 k-point 41 :  -0.3750 0.2500 0.1250  plane waves:    2784
 k-point 42 :  -0.2500 0.2500 0.1250  plane waves:    2786
 k-point 43 :  -0.1250 0.2500 0.1250  plane waves:    2794
 k-point 44 :   0.2500 0.3750 0.1250  plane waves:    2784
 k-point 45 :   0.3750 0.3750 0.1250  plane waves:    2812
 k-point 46 :   0.5000 0.3750 0.1250  plane waves:    2804
 k-point 47 :  -0.3750 0.3750 0.1250  plane waves:    2812
 k-point 48 :  -0.2500 0.3750 0.1250  plane waves:    2784
 k-point 49 :  -0.1250 0.3750 0.1250  plane waves:    2784
 k-point 50 :   0.2500 0.5000 0.1250  plane waves:    2804
 k-point 51 :   0.3750 0.5000 0.1250  plane waves:    2804
 k-point 52 :   0.5000 0.5000 0.1250  plane waves:    2808
 k-point 53 :  -0.3750 0.5000 0.1250  plane waves:    2804
 k-point 54 :  -0.2500 0.5000 0.1250  plane waves:    2804
 k-point 55 :  -0.1250 0.5000 0.1250  plane waves:    2820
 k-point 56 :   0.2500-0.3750 0.1250  plane waves:    2784
 k-point 57 :   0.3750-0.3750 0.1250  plane waves:    2812
 k-point 58 :   0.5000-0.3750 0.1250  plane waves:    2804
 k-point 59 :  -0.3750-0.3750 0.1250  plane waves:    2812
 k-point 60 :  -0.2500-0.3750 0.1250  plane waves:    2784
 k-point 61 :  -0.1250-0.3750 0.1250  plane waves:    2784
 k-point 62 :   0.2500-0.2500 0.1250  plane waves:    2786
 k-point 63 :   0.3750-0.2500 0.1250  plane waves:    2784
 k-point 64 :   0.5000-0.2500 0.1250  plane waves:    2804
 k-point 65 :  -0.3750-0.2500 0.1250  plane waves:    2784
 k-point 66 :  -0.2500-0.2500 0.1250  plane waves:    2786
 k-point 67 :  -0.1250-0.2500 0.1250  plane waves:    2794
 k-point 68 :   0.2500 0.2500 0.2500  plane waves:    2788
 k-point 69 :   0.3750 0.2500 0.2500  plane waves:    2814
 k-point 70 :   0.5000 0.2500 0.2500  plane waves:    2804
 k-point 71 :  -0.3750 0.2500 0.2500  plane waves:    2814
 k-point 72 :  -0.2500 0.2500 0.2500  plane waves:    2788
 k-point 73 :   0.3750 0.3750 0.2500  plane waves:    2824
 k-point 74 :   0.5000 0.3750 0.2500  plane waves:    2816
 k-point 75 :  -0.3750 0.3750 0.2500  plane waves:    2824
 k-point 76 :  -0.2500 0.3750 0.2500  plane waves:    2814
 k-point 77 :   0.3750 0.5000 0.2500  plane waves:    2816
 k-point 78 :   0.5000 0.5000 0.2500  plane waves:    2840
 k-point 79 :  -0.3750 0.5000 0.2500  plane waves:    2816
 k-point 80 :  -0.2500 0.5000 0.2500  plane waves:    2804
 k-point 81 :   0.3750-0.3750 0.2500  plane waves:    2824
 k-point 82 :   0.5000-0.3750 0.2500  plane waves:    2816
 k-point 83 :  -0.3750-0.3750 0.2500  plane waves:    2824
 k-point 84 :  -0.2500-0.3750 0.2500  plane waves:    2814
 k-point 85 :   0.3750 0.3750 0.3750  plane waves:    2806
 k-point 86 :   0.5000 0.3750 0.3750  plane waves:    2804
 k-point 87 :  -0.3750 0.3750 0.3750  plane waves:    2806
 k-point 88 :   0.5000 0.5000 0.3750  plane waves:    2792
 k-point 89 :  -0.3750 0.5000 0.3750  plane waves:    2804
 k-point 90 :   0.5000 0.5000 0.5000  plane waves:    2752

 maximum and minimum number of plane-waves per node :      2840     2730

 maximum number of plane-waves:      2840
 maximum index in each direction: 
   IXMAX=    7   IYMAX=    7   IZMAX=    6
   IXMIN=   -7   IYMIN=   -7   IZMIN=   -7

 WARNING: aliasing errors must be expected set NGX to  30 to avoid them
 WARNING: aliasing errors must be expected set NGY to  30 to avoid them
 WARNING: aliasing errors must be expected set NGZ to  28 to avoid them
 aliasing errors are usually negligible using standard VASP settings
 and one can safely disregard these warnings

 serial   3D FFT for wavefunctions
 parallel 3D FFT for charge:
    minimum data exchange during FFTs selected (reduces bandwidth)


 total amount of memory used by VASP on root node    59514. kBytes
========================================================================

   base      :      30000. kBytes
   nonl-proj :       8384. kBytes
   fftplans  :        574. kBytes
   grid      :       3317. kBytes
   one-center:         98. kBytes
   wavefun   :      17141. kBytes
 
     INWAV:  cpu time    0.0000: real time    0.0000
 Broyden mixing: mesh for mixing (old mesh)
   NGX = 13   NGY = 13   NGZ = 13
  (NGX  = 48   NGY  = 48   NGZ  = 48)
  gives a total of   2197 points

 initial charge density was supplied:
 charge density of overlapping atoms calculated
 number of electron      32.0000000 magnetization       8.0000000      8.0000000      8.0000000
 keeping initial charge density in first step


--------------------------------------------------------------------------------------------------------


 Maximum index for augmentation-charges          241 (set IRDMAX)


--------------------------------------------------------------------------------------------------------


 First call to EWALD:  gamma=   0.326
 Maximum number of real-space cells 3x 3x 3
 Maximum number of reciprocal cells 3x 3x 3

 FEWALD executed in parallel
    FEWALD:  cpu time    0.0026: real time    0.0012


----------------------------------------- Iteration    1(   1)  ---------------------------------------


    POTLOK:  cpu time    0.0392: real time    0.0196
    SETDIJ:  cpu time    0.0078: real time    0.0039
     EDDAV:  cpu time    5.0486: real time    2.5245
 BZINTS: Fermi energy:  9.149510; 32.000000 electrons
         Band energy:  82.680531;  BLOECHL correction: -0.035107
       DOS:  cpu time    0.2549: real time    0.1275
    --------------------------------------------
      LOOP:  cpu time    5.3555: real time    2.6789

 eigenvalue-minimisations  : 11520
 total energy-change (2. order) : 0.3158809E+02  (-0.7318760E+03)
 number of electron      32.0000000 magnetization       8.0000000      8.0000000      8.0000000
 augmentation part       32.0000000 magnetization       8.0000000      8.0000000      8.0000000

 Free energy of the ion-electron system (eV)
  ---------------------------------------------------
  alpha Z        PSCENC =        13.45656811
  Ewald energy   TEWEN  =      -914.25413255
  -Hartree energ DENC   =       -44.00432972
  -exchange      EXHF   =         0.00000000
  -V(xc)+E(xc)   XCENC  =       -71.65875803
  PAW double counting   =       262.47963331     -121.60170883
  entropy T*S    EENTRO =         0.00000000
  eigenvalues    EBANDS =        82.68053147
  atomic energy  EATOM  =       824.49028925
  Solvation  Ediel_sol  =         0.00000000
  ---------------------------------------------------
  free energy    TOTEN  =        31.58809300 eV

  energy without entropy =       31.58809300  energy(sigma->0) =       31.58809300


--------------------------------------------------------------------------------------------------------




----------------------------------------- Iteration    1(   2)  ---------------------------------------


     EDDAV:  cpu time    6.2860: real time    3.1432
 BZINTS: Fermi energy:  5.972285; 32.000000 electrons
         Band energy:  16.129374;  BLOECHL correction: -0.014920
       DOS:  cpu time    0.2116: real time    0.1058
    --------------------------------------------
      LOOP:  cpu time    6.5052: real time    3.2541

 eigenvalue-minimisations  : 14960
 total energy-change (2. order) :-0.6655116E+02  (-0.6241074E+02)
 number of electron      32.0000000 magnetization       8.0000000      8.0000000      8.0000000
 augmentation part       32.0000000 magnetization       8.0000000      8.0000000      8.0000000

 Free energy of the ion-electron system (eV)
  ---------------------------------------------------
  alpha Z        PSCENC =        13.45656811
  Ewald energy   TEWEN  =      -914.25413255
  -Hartree energ DENC   =       -44.00432972
  -exchange      EXHF   =         0.00000000
  -V(xc)+E(xc)   XCENC  =       -71.65875803
  PAW double counting   =       262.47963331     -121.60170883
  entropy T*S    EENTRO =         0.00000000
  eigenvalues    EBANDS =        16.12937360
  atomic energy  EATOM  =       824.49028925
  Solvation  Ediel_sol  =         0.00000000
  ---------------------------------------------------
  free energy    TOTEN  =       -34.96306486 eV

  energy without entropy =      -34.96306486  energy(sigma->0) =      -34.96306486


--------------------------------------------------------------------------------------------------------




----------------------------------------- Iteration    1(   3)  ---------------------------------------


     EDDAV:  cpu time   16.9088: real time    9.3941
 BZINTS: Fermi energy:  5.854379; 32.000000 electrons
         Band energy:  13.451595;  BLOECHL correction: -0.014449
       DOS:  cpu time    0.2188: real time    0.1094
    --------------------------------------------
      LOOP:  cpu time   17.1348: real time    9.5088

 eigenvalue-minimisations  : 15088
 total energy-change (2. order) :-0.2677778E+01  (-0.2648558E+01)
 number of electron      32.0000000 magnetization       8.0000000      8.0000000      8.0000000
 augmentation part       32.0000000 magnetization       8.0000000      8.0000000      8.0000000

 Free energy of the ion-electron system (eV)
  ---------------------------------------------------
  alpha Z        PSCENC =        13.45656811
  Ewald energy   TEWEN  =      -914.25413255
  -Hartree energ DENC   =       -44.00432972
  -exchange      EXHF   =         0.00000000
  -V(xc)+E(xc)   XCENC  =       -71.65875803
  PAW double counting   =       262.47963331     -121.60170883
  entropy T*S    EENTRO =         0.00000000
  eigenvalues    EBANDS =        13.45159540
  atomic energy  EATOM  =       824.49028925
  Solvation  Ediel_sol  =         0.00000000
  ---------------------------------------------------
  free energy    TOTEN  =       -37.64084306 eV

  energy without entropy =      -37.64084306  energy(sigma->0) =      -37.64084306


--------------------------------------------------------------------------------------------------------




----------------------------------------- Iteration    1(   4)  ---------------------------------------


     EDDAV:  cpu time    6.6638: real time    3.3321
 BZINTS: Fermi energy:  5.853055; 32.000000 electrons
         Band energy:  13.424115;  BLOECHL correction: -0.014421
       DOS:  cpu time    0.2184: real time    0.1092
    --------------------------------------------
      LOOP:  cpu time    6.9115: real time    3.4574

 eigenvalue-minimisations  : 13984
 total energy-change (2. order) :-0.2748073E-01  (-0.2749145E-01)
 number of electron      32.0000000 magnetization       8.0000000      8.0000000      8.0000000
 augmentation part       32.0000000 magnetization       8.0000000      8.0000000      8.0000000

 Free energy of the ion-electron system (eV)
  ---------------------------------------------------
  alpha Z        PSCENC =        13.45656811
  Ewald energy   TEWEN  =      -914.25413255
  -Hartree energ DENC   =       -44.00432972
  -exchange      EXHF   =         0.00000000
  -V(xc)+E(xc)   XCENC  =       -71.65875803
  PAW double counting   =       262.47963331     -121.60170883
  entropy T*S    EENTRO =         0.00000000
  eigenvalues    EBANDS =        13.42411467
  atomic energy  EATOM  =       824.49028925
  Solvation  Ediel_sol  =         0.00000000
  ---------------------------------------------------
  free energy    TOTEN  =       -37.66832379 eV

  energy without entropy =      -37.66832379  energy(sigma->0) =      -37.66832379


--------------------------------------------------------------------------------------------------------




----------------------------------------- Iteration    1(   5)  ---------------------------------------


     EDDAV:  cpu time    7.1790: real time    3.5897
 BZINTS: Fermi energy:  5.853035; 32.000000 electrons
         Band energy:  13.423695;  BLOECHL correction: -0.014421
       DOS:  cpu time    0.2315: real time    0.1157
    CHARGE:  cpu time    0.2165: real time    0.1192
    MIXING:  cpu time    0.0013: real time    0.0006
    --------------------------------------------
      LOOP:  cpu time    7.6628: real time    3.8442

 eigenvalue-minimisations  : 15200
 total energy-change (2. order) :-0.4192400E-03  (-0.4198885E-03)
 number of electron      32.0000061 magnetization       0.9015946      0.9015946      0.9015946
 augmentation part       -1.8967470 magnetization       0.6689187      0.6689187      0.6689187

 Broyden mixing:
  rms(total) = 0.13650E+01    rms(broyden)= 0.13649E+01
  rms(prec ) = 0.16415E+01
  weight for this iteration     100.00

 Free energy of the ion-electron system (eV)
  ---------------------------------------------------
  alpha Z        PSCENC =        13.45656811
  Ewald energy   TEWEN  =      -914.25413255
  -Hartree energ DENC   =       -44.00432972
  -exchange      EXHF   =         0.00000000
  -V(xc)+E(xc)   XCENC  =       -71.65875803
  PAW double counting   =       262.47963331     -121.60170883
  entropy T*S    EENTRO =         0.00000000
  eigenvalues    EBANDS =        13.42369543
  atomic energy  EATOM  =       824.49028925
  Solvation  Ediel_sol  =         0.00000000
  ---------------------------------------------------
  free energy    TOTEN  =       -37.66874303 eV

  energy without entropy =      -37.66874303  energy(sigma->0) =      -37.66874303


--------------------------------------------------------------------------------------------------------




----------------------------------------- Iteration    1(   6)  ---------------------------------------


    POTLOK:  cpu time    0.0314: real time    0.0157
    SETDIJ:  cpu time    0.0078: real time    0.0039
    EDDIAG:  cpu time    1.3307: real time    0.6654
  RMM-DIIS:  cpu time    3.3702: real time    1.7702
    ORTHCH:  cpu time    0.1463: real time    0.0733
 BZINTS: Fermi energy:  5.582533; 32.000000 electrons
         Band energy:  15.814953;  BLOECHL correction:  0.000000
       DOS:  cpu time    0.0550: real time    0.0274
    CHARGE:  cpu time    0.2435: real time    0.1218
    MIXING:  cpu time    0.0016: real time    0.0008
    --------------------------------------------
      LOOP:  cpu time    5.1910: real time    2.6824

 eigenvalue-minimisations  : 11611
 total energy-change (2. order) :-0.5569614E+01  (-0.1427685E+00)
 number of electron      32.0000059 magnetization      -0.0610278     -0.0610278     -0.0610278
 augmentation part       -1.8567146 magnetization      -0.0425239     -0.0425239     -0.0425239

 Broyden mixing:
  rms(total) = 0.41742E+00    rms(broyden)= 0.41741E+00
  rms(prec ) = 0.70753E+00
  weight for this iteration     100.00

 eigenvalues of (default mixing * dielectric matrix)
  average eigenvalue GAMMA=   0.9837
  0.9837

 Free energy of the ion-electron system (eV)
  ---------------------------------------------------
  alpha Z        PSCENC =        13.45656811
  Ewald energy   TEWEN  =      -914.25413255
  -Hartree energ DENC   =       -49.77248098
  -exchange      EXHF   =         0.00000000
  -V(xc)+E(xc)   XCENC  =       -73.32160487
  PAW double counting   =       280.57011236     -140.22206116
  entropy T*S    EENTRO =         0.00000000
  eigenvalues    EBANDS =        15.81495307
  atomic energy  EATOM  =       824.49028925
  Solvation  Ediel_sol  =         0.00000000
  ---------------------------------------------------
  free energy    TOTEN  =       -43.23835677 eV

  energy without entropy =      -43.23835677  energy(sigma->0) =      -43.23835677


--------------------------------------------------------------------------------------------------------




----------------------------------------- Iteration    1(   7)  ---------------------------------------


    POTLOK:  cpu time    0.0311: real time    0.0156
    SETDIJ:  cpu time    0.0077: real time    0.0039
    EDDIAG:  cpu time    1.3215: real time    0.6608
  RMM-DIIS:  cpu time    3.4151: real time    1.8182
    ORTHCH:  cpu time    0.1518: real time    0.0761
 BZINTS: Fermi energy:  5.732389; 32.000000 electrons
         Band energy:  19.987291;  BLOECHL correction:  0.000000
       DOS:  cpu time    0.0537: real time    0.0268
    CHARGE:  cpu time    0.2430: real time    0.1215
    MIXING:  cpu time    0.0017: real time    0.0009
    --------------------------------------------
      LOOP:  cpu time    5.2305: real time    2.7277

 eigenvalue-minimisations  : 11640
 total energy-change (2. order) :-0.1274769E+00  (-0.7088364E-01)
 number of electron      32.0000059 magnetization      -0.1052633     -0.1052633     -0.1052633
 augmentation part       -1.8408585 magnetization      -0.1054931     -0.1054931     -0.1054931

 Broyden mixing:
  rms(total) = 0.21195E+00    rms(broyden)= 0.21195E+00
  rms(prec ) = 0.36353E+00
  weight for this iteration     100.00

 eigenvalues of (default mixing * dielectric matrix)
  average eigenvalue GAMMA=   1.0071
  1.1900  0.8242

 Free energy of the ion-electron system (eV)
  ---------------------------------------------------
  alpha Z        PSCENC =        13.45656811
  Ewald energy   TEWEN  =      -914.25413255
  -Hartree energ DENC   =       -54.36463237
  -exchange      EXHF   =         0.00000000
  -V(xc)+E(xc)   XCENC  =       -72.72123552
  PAW double counting   =       291.84329221     -151.80327337
  entropy T*S    EENTRO =         0.00000000
  eigenvalues    EBANDS =        19.98729055
  atomic energy  EATOM  =       824.49028925
  Solvation  Ediel_sol  =         0.00000000
  ---------------------------------------------------
  free energy    TOTEN  =       -43.36583369 eV

  energy without entropy =      -43.36583369  energy(sigma->0) =      -43.36583369


--------------------------------------------------------------------------------------------------------




----------------------------------------- Iteration    1(   8)  ---------------------------------------


    POTLOK:  cpu time    0.0306: real time    0.0153
    SETDIJ:  cpu time    0.0077: real time    0.0038
    EDDIAG:  cpu time    1.3370: real time    0.6686
  RMM-DIIS:  cpu time    3.5341: real time    1.9217
    ORTHCH:  cpu time    0.1501: real time    0.0752
 BZINTS: Fermi energy:  5.855075; 32.000000 electrons
         Band energy:  23.293473;  BLOECHL correction:  0.000000
       DOS:  cpu time    0.0539: real time    0.0269
    CHARGE:  cpu time    0.2402: real time    0.1201
    MIXING:  cpu time    0.0017: real time    0.0008
    --------------------------------------------
      LOOP:  cpu time    5.3596: real time    2.8363

 eigenvalue-minimisations  : 11883
 total energy-change (2. order) : 0.3832673E-01  (-0.1309980E-01)
 number of electron      32.0000059 magnetization      -0.0124640     -0.0124640     -0.0124640
 augmentation part       -1.8319965 magnetization      -0.0142556     -0.0142556     -0.0142556

 Broyden mixing:
  rms(total) = 0.10134E+00    rms(broyden)= 0.10133E+00
  rms(prec ) = 0.13517E+00
  weight for this iteration     100.00

 eigenvalues of (default mixing * dielectric matrix)
  average eigenvalue GAMMA=   1.2051
  1.8896  1.0302  0.6953

 Free energy of the ion-electron system (eV)
  ---------------------------------------------------
  alpha Z        PSCENC =        13.45656811
  Ewald energy   TEWEN  =      -914.25413255
  -Hartree energ DENC   =       -58.07450061
  -exchange      EXHF   =         0.00000000
  -V(xc)+E(xc)   XCENC  =       -72.09640045
  PAW double counting   =       299.50862632     -159.65142984
  entropy T*S    EENTRO =         0.00000000
  eigenvalues    EBANDS =        23.29347281
  atomic energy  EATOM  =       824.49028925
  Solvation  Ediel_sol  =         0.00000000
  ---------------------------------------------------
  free energy    TOTEN  =       -43.32750697 eV

  energy without entropy =      -43.32750697  energy(sigma->0) =      -43.32750697


--------------------------------------------------------------------------------------------------------




----------------------------------------- Iteration    1(   9)  ---------------------------------------


    POTLOK:  cpu time    0.0304: real time    0.0152
    SETDIJ:  cpu time    0.0075: real time    0.0038
    EDDIAG:  cpu time    1.3398: real time    0.6699
  RMM-DIIS:  cpu time    3.6361: real time    2.0126
    ORTHCH:  cpu time    0.1518: real time    0.0761
 BZINTS: Fermi energy:  5.887815; 32.000000 electrons
         Band energy:  24.531638;  BLOECHL correction:  0.000000
       DOS:  cpu time    0.0498: real time    0.0265
    CHARGE:  cpu time    0.2458: real time    0.1219
    MIXING:  cpu time    0.0009: real time    0.0009
    --------------------------------------------
      LOOP:  cpu time    5.4670: real time    2.9313

 eigenvalue-minimisations  : 12253
 total energy-change (2. order) : 0.3649955E-01  (-0.2132069E-02)
 number of electron      32.0000059 magnetization       0.0006018      0.0006018      0.0006018
 augmentation part       -1.8288119 magnetization       0.0009371      0.0009371      0.0009371

 Broyden mixing:
  rms(total) = 0.25983E-01    rms(broyden)= 0.25980E-01
  rms(prec ) = 0.34230E-01
  weight for this iteration     100.00

 eigenvalues of (default mixing * dielectric matrix)
  average eigenvalue GAMMA=   1.2596
  2.3664  1.0384  0.9871  0.6466

 Free energy of the ion-electron system (eV)
  ---------------------------------------------------
  alpha Z        PSCENC =        13.45656811
  Ewald energy   TEWEN  =      -914.25413255
  -Hartree energ DENC   =       -59.43382906
  -exchange      EXHF   =         0.00000000
  -V(xc)+E(xc)   XCENC  =       -71.86549656
  PAW double counting   =       301.53878121     -161.75482575
  entropy T*S    EENTRO =         0.00000000
  eigenvalues    EBANDS =        24.53163793
  atomic energy  EATOM  =       824.49028925
  Solvation  Ediel_sol  =         0.00000000
  ---------------------------------------------------
  free energy    TOTEN  =       -43.29100742 eV

  energy without entropy =      -43.29100742  energy(sigma->0) =      -43.29100742


--------------------------------------------------------------------------------------------------------




----------------------------------------- Iteration    1(  10)  ---------------------------------------


    POTLOK:  cpu time    0.0313: real time    0.0153
    SETDIJ:  cpu time    0.0080: real time    0.0040
    EDDIAG:  cpu time    1.3391: real time    0.6690
  RMM-DIIS:  cpu time    3.7933: real time    2.1509
    ORTHCH:  cpu time    0.1509: real time    0.0756
 BZINTS: Fermi energy:  5.883585; 32.000000 electrons
         Band energy:  24.634440;  BLOECHL correction:  0.000000
       DOS:  cpu time    0.0535: real time    0.0267
    CHARGE:  cpu time    0.2439: real time    0.1220
    MIXING:  cpu time    0.0019: real time    0.0010
    --------------------------------------------
      LOOP:  cpu time    5.6267: real time    3.0684

 eigenvalue-minimisations  : 12993
 total energy-change (2. order) : 0.2801853E-02  (-0.2616003E-03)
 number of electron      32.0000059 magnetization       0.0015262      0.0015262      0.0015262
 augmentation part       -1.8292800 magnetization       0.0014392      0.0014392      0.0014392

 Broyden mixing:
  rms(total) = 0.10104E-01    rms(broyden)= 0.10104E-01
  rms(prec ) = 0.16011E-01
  weight for this iteration     100.00

 eigenvalues of (default mixing * dielectric matrix)
  average eigenvalue GAMMA=   1.2153
  2.4658  1.1261  1.0499  0.8004  0.6345

 Free energy of the ion-electron system (eV)
  ---------------------------------------------------
  alpha Z        PSCENC =        13.45656811
  Ewald energy   TEWEN  =      -914.25413255
  -Hartree energ DENC   =       -59.57913906
  -exchange      EXHF   =         0.00000000
  -V(xc)+E(xc)   XCENC  =       -71.83125047
  PAW double counting   =       301.15083594     -161.35581688
  entropy T*S    EENTRO =         0.00000000
  eigenvalues    EBANDS =        24.63444009
  atomic energy  EATOM  =       824.49028925
  Solvation  Ediel_sol  =         0.00000000
  ---------------------------------------------------
  free energy    TOTEN  =       -43.28820557 eV

  energy without entropy =      -43.28820557  energy(sigma->0) =      -43.28820557


--------------------------------------------------------------------------------------------------------




----------------------------------------- Iteration    1(  11)  ---------------------------------------


    POTLOK:  cpu time    0.0311: real time    0.0156
    SETDIJ:  cpu time    0.0079: real time    0.0040
    EDDIAG:  cpu time    1.3247: real time    0.6624
  RMM-DIIS:  cpu time    5.6669: real time    3.3292
    ORTHCH:  cpu time    2.4949: real time    1.5942
 BZINTS: Fermi energy:  5.885291; 32.000000 electrons
         Band energy:  24.616449;  BLOECHL correction:  0.000000
       DOS:  cpu time    0.0935: real time    0.0455
    CHARGE:  cpu time    0.6041: real time    0.3350
    MIXING:  cpu time    0.0025: real time    0.0013
    --------------------------------------------
      LOOP:  cpu time   10.2301: real time    5.9911

 eigenvalue-minimisations  : 12587
 total energy-change (2. order) :-0.5091983E-03  (-0.5254319E-04)
 number of electron      32.0000059 magnetization       0.0003309      0.0003309      0.0003309
 augmentation part       -1.8297824 magnetization       0.0003972      0.0003972      0.0003972

 Broyden mixing:
  rms(total) = 0.49686E-02    rms(broyden)= 0.49686E-02
  rms(prec ) = 0.77418E-02
  weight for this iteration     100.00

 eigenvalues of (default mixing * dielectric matrix)
  average eigenvalue GAMMA=   1.2889
  2.5094  1.7671  1.0405  1.0405  0.7434  0.6321

 Free energy of the ion-electron system (eV)
  ---------------------------------------------------
  alpha Z        PSCENC =        13.45656811
  Ewald energy   TEWEN  =      -914.25413255
  -Hartree energ DENC   =       -59.58652811
  -exchange      EXHF   =         0.00000000
  -V(xc)+E(xc)   XCENC  =       -71.82255741
  PAW double counting   =       300.60632904     -160.79513241
  entropy T*S    EENTRO =         0.00000000
  eigenvalues    EBANDS =        24.61644932
  atomic energy  EATOM  =       824.49028925
  Solvation  Ediel_sol  =         0.00000000
  ---------------------------------------------------
  free energy    TOTEN  =       -43.28871476 eV

  energy without entropy =      -43.28871476  energy(sigma->0) =      -43.28871476


--------------------------------------------------------------------------------------------------------




----------------------------------------- Iteration    1(  12)  ---------------------------------------


    POTLOK:  cpu time    0.0549: real time    0.0374
    SETDIJ:  cpu time    0.0627: real time    0.0314
    EDDIAG:  cpu time    5.9296: real time    2.9780
  RMM-DIIS:  cpu time    3.3011: real time    1.7359
    ORTHCH:  cpu time    0.1339: real time    0.0671
 BZINTS: Fermi energy:  5.884260; 32.000000 electrons
         Band energy:  24.612242;  BLOECHL correction:  0.000000
       DOS:  cpu time    0.0535: real time    0.0267
    CHARGE:  cpu time    0.1795: real time    0.0897
    MIXING:  cpu time    0.0024: real time    0.0012
    --------------------------------------------
      LOOP:  cpu time    9.7359: real time    4.9851

 eigenvalue-minimisations  : 12365
 total energy-change (2. order) :-0.2236483E-03  (-0.2450728E-04)
 number of electron      32.0000059 magnetization      -0.0000035     -0.0000035     -0.0000035
 augmentation part       -1.8301376 magnetization       0.0000100      0.0000100      0.0000100

 Broyden mixing:
  rms(total) = 0.15887E-02    rms(broyden)= 0.15886E-02
  rms(prec ) = 0.22892E-02
  weight for this iteration     100.00

 eigenvalues of (default mixing * dielectric matrix)
  average eigenvalue GAMMA=   1.3414
  2.7779  2.3451  1.0721  1.0721  0.8311  0.6274  0.6639

 Free energy of the ion-electron system (eV)
  ---------------------------------------------------
  alpha Z        PSCENC =        13.45656811
  Ewald energy   TEWEN  =      -914.25413255
  -Hartree energ DENC   =       -59.60077916
  -exchange      EXHF   =         0.00000000
  -V(xc)+E(xc)   XCENC  =       -71.81579796
  PAW double counting   =       300.19782134     -160.37514978
  entropy T*S    EENTRO =         0.00000000
  eigenvalues    EBANDS =        24.61224234
  atomic energy  EATOM  =       824.49028925
  Solvation  Ediel_sol  =         0.00000000
  ---------------------------------------------------
  free energy    TOTEN  =       -43.28893841 eV

  energy without entropy =      -43.28893841  energy(sigma->0) =      -43.28893841


--------------------------------------------------------------------------------------------------------




----------------------------------------- Iteration    1(  13)  ---------------------------------------


    POTLOK:  cpu time    0.0275: real time    0.0138
    SETDIJ:  cpu time    0.0073: real time    0.0037
    EDDIAG:  cpu time    1.2042: real time    0.6022
  RMM-DIIS:  cpu time    3.5057: real time    1.8458
    ORTHCH:  cpu time    0.1325: real time    0.0664
 BZINTS: Fermi energy:  5.884649; 32.000000 electrons
         Band energy:  24.622387;  BLOECHL correction:  0.000000
       DOS:  cpu time    0.0533: real time    0.0266
    CHARGE:  cpu time    0.1773: real time    0.0887
    MIXING:  cpu time    0.0023: real time    0.0012
    --------------------------------------------
      LOOP:  cpu time    5.1147: real time    2.6521

 eigenvalue-minimisations  : 13397
 total energy-change (2. order) :-0.1705986E-04  (-0.1425384E-05)
 number of electron      32.0000059 magnetization      -0.0001382     -0.0001382     -0.0001382
 augmentation part       -1.8301631 magnetization      -0.0001395     -0.0001395     -0.0001395

 Broyden mixing:
  rms(total) = 0.67682E-03    rms(broyden)= 0.67681E-03
  rms(prec ) = 0.12704E-02
  weight for this iteration     100.00

 eigenvalues of (default mixing * dielectric matrix)
  average eigenvalue GAMMA=   1.3588
  2.8235  2.3970  1.4257  1.0616  1.0616  0.8151  0.6604  0.6257

 Free energy of the ion-electron system (eV)
  ---------------------------------------------------
  alpha Z        PSCENC =        13.45656811
  Ewald energy   TEWEN  =      -914.25413255
  -Hartree energ DENC   =       -59.61237450
  -exchange      EXHF   =         0.00000000
  -V(xc)+E(xc)   XCENC  =       -71.81449472
  PAW double counting   =       300.17687294     -160.35407149
  entropy T*S    EENTRO =         0.00000000
  eigenvalues    EBANDS =        24.62238749
  atomic energy  EATOM  =       824.49028925
  Solvation  Ediel_sol  =         0.00000000
  ---------------------------------------------------
  free energy    TOTEN  =       -43.28895547 eV

  energy without entropy =      -43.28895547  energy(sigma->0) =      -43.28895547


--------------------------------------------------------------------------------------------------------




----------------------------------------- Iteration    1(  14)  ---------------------------------------


    POTLOK:  cpu time    0.0270: real time    0.0135
    SETDIJ:  cpu time    0.0073: real time    0.0037
    EDDIAG:  cpu time    1.2037: real time    0.6019
  RMM-DIIS:  cpu time    3.3428: real time    1.7686
    ORTHCH:  cpu time    0.1338: real time    0.0671
 BZINTS: Fermi energy:  5.885260; 32.000000 electrons
         Band energy:  24.640667;  BLOECHL correction:  0.000000
       DOS:  cpu time    0.0531: real time    0.0266
    CHARGE:  cpu time    0.1766: real time    0.0883
    MIXING:  cpu time    0.0024: real time    0.0012
    --------------------------------------------
      LOOP:  cpu time    4.9516: real time    2.5750

 eigenvalue-minimisations  : 12735
 total energy-change (2. order) :-0.7386548E-05  (-0.1204716E-05)
 number of electron      32.0000059 magnetization      -0.0000408     -0.0000408     -0.0000408
 augmentation part       -1.8300770 magnetization      -0.0000438     -0.0000438     -0.0000438

 Broyden mixing:
  rms(total) = 0.22035E-03    rms(broyden)= 0.22034E-03
  rms(prec ) = 0.22658E-03
  weight for this iteration     100.00

 eigenvalues of (default mixing * dielectric matrix)
  average eigenvalue GAMMA=   1.4385
  3.1845  2.6245  2.1685  1.0733  1.0733  0.8475  0.7009  0.6214  0.6529

 Free energy of the ion-electron system (eV)
  ---------------------------------------------------
  alpha Z        PSCENC =        13.45656811
  Ewald energy   TEWEN  =      -914.25413255
  -Hartree energ DENC   =       -59.62983342
  -exchange      EXHF   =         0.00000000
  -V(xc)+E(xc)   XCENC  =       -71.81385789
  PAW double counting   =       300.18931472     -160.36797832
  entropy T*S    EENTRO =         0.00000000
  eigenvalues    EBANDS =        24.64066725
  atomic energy  EATOM  =       824.49028925
  Solvation  Ediel_sol  =         0.00000000
  ---------------------------------------------------
  free energy    TOTEN  =       -43.28896286 eV

  energy without entropy =      -43.28896286  energy(sigma->0) =      -43.28896286


--------------------------------------------------------------------------------------------------------




----------------------------------------- Iteration    1(  15)  ---------------------------------------


    POTLOK:  cpu time    0.0268: real time    0.0134
    SETDIJ:  cpu time    0.0074: real time    0.0037
    EDDIAG:  cpu time    1.1953: real time    0.5977
  RMM-DIIS:  cpu time    3.0588: real time    1.6141
    ORTHCH:  cpu time    0.1318: real time    0.0660
 BZINTS: Fermi energy:  5.885236; 32.000000 electrons
         Band energy:  24.640816;  BLOECHL correction:  0.000000
       DOS:  cpu time    0.0530: real time    0.0265
    --------------------------------------------
      LOOP:  cpu time    4.4777: real time    2.3255

 eigenvalue-minimisations  : 10585
 total energy-change (2. order) :-0.3917536E-06  (-0.5555562E-07)
 number of electron      32.0000059 magnetization      -0.0000408     -0.0000408     -0.0000408
 augmentation part       -1.8300770 magnetization      -0.0000438     -0.0000438     -0.0000438

 Free energy of the ion-electron system (eV)
  ---------------------------------------------------
  alpha Z        PSCENC =        13.45656811
  Ewald energy   TEWEN  =      -914.25413255
  -Hartree energ DENC   =       -59.63005676
  -exchange      EXHF   =         0.00000000
  -V(xc)+E(xc)   XCENC  =       -71.81386899
  PAW double counting   =       300.18704691     -160.36562540
  entropy T*S    EENTRO =         0.00000000
  eigenvalues    EBANDS =        24.64081618
  atomic energy  EATOM  =       824.49028925
  Solvation  Ediel_sol  =         0.00000000
  ---------------------------------------------------
  free energy    TOTEN  =       -43.28896325 eV

  energy without entropy =      -43.28896325  energy(sigma->0) =      -43.28896325


--------------------------------------------------------------------------------------------------------




 average (electrostatic) potential at core
  the test charge radii are     0.9892
  (the norm of the test charge is              1.0000)
       1 -83.2476       2 -83.2476       3 -83.2476       4 -83.2476       5 -83.2476
       6 -83.2476       7 -83.2476       8 -83.2476
 
 
 
 E-fermi :   5.8852     XC(G=0):  -9.4116     alpha+bet :-11.9845


 k-point     1 :       0.0000    0.0000    0.0000
  band No.  band energies     occupation 
      1      -6.1306      1.00000
      2      -6.1306      1.00000
      3      -1.9840      1.00000
      4      -1.9840      1.00000
      5      -1.9840      1.00000
      6      -1.9840      1.00000
      7      -1.9840      1.00000
      8      -1.9840      1.00000
      9      -1.9840      1.00000
     10      -1.9840      1.00000
     11      -1.9840      1.00000
     12      -1.9840      1.00000
     13      -1.9840      1.00000
     14      -1.9840      1.00000
     15       2.9820      1.00000
     16       2.9820      1.00000
     17       2.9820      1.00000
     18       2.9820      1.00000
     19       2.9820      1.00000
     20       2.9820      1.00000
     21       2.9820      1.00000
     22       2.9820      1.00000
     23       2.9820      1.00000
     24       2.9820      1.00000
     25       2.9820      1.00000
     26       2.9820      1.00000
     27       5.8091      1.00000
     28       5.8091      1.00000
     29       5.8569      1.00000
     30       5.8569      1.00000
     31       5.8570      1.00000
     32       5.8570      1.00000
     33       6.5595      0.00000
     34       6.5595      0.00000
     35       6.5595      0.00000
     36       6.5595      0.00000
     37       6.5595      0.00000
     38       6.5595      0.00000
     39       6.5595      0.00000
     40       6.5595      0.00000
     41       6.5595      0.00000
     42       6.5595      0.00000
     43       6.5595      0.00000
     44       6.5595      0.00000
     45       8.3859      0.00000
     46       8.3859      0.00000
     47       8.4208      0.00000
     48       8.4208      0.00000
     49       8.4208      0.00000
     50       8.4208      0.00000
     51       9.2079      0.00000
     52       9.2080      0.00000
     53      13.6282      0.00000
     54      13.6282      0.00000
     55      13.6282      0.00000
     56      13.6282      0.00000
     57      13.7928      0.00000
     58      13.7928      0.00000
     59      15.9656      0.00000
     60      15.9656      0.00000
     61      15.9656      0.00000
     62      15.9656      0.00000
     63      15.9656      0.00000
     64      15.9656      0.00000

 k-point     2 :       0.1250    0.0000    0.0000
  band No.  band energies     occupation 
      1      -6.0622      1.00000
      2      -6.0622      1.00000
      3      -2.9082      1.00000
      4      -2.9082      1.00000
      5      -1.9628      1.00000
      6      -1.9628      1.00000
      7      -1.9628      1.00000
      8      -1.9628      1.00000
      9      -1.9610      1.00000
     10      -1.9610      1.00000
     11      -1.9610      1.00000
     12      -1.9610      1.00000
     13      -0.9784      1.00000
     14      -0.9784      1.00000
     15       2.7920      1.00000
     16       2.7920      1.00000
     17       2.7920      1.00000
     18       2.7920      1.00000
     19       2.7982      1.00000
     20       2.7982      1.00000
     21       2.7982      1.00000
     22       2.7982      1.00000
     23       3.0429      1.00000
     24       3.0429      1.00000
     25       3.0446      1.00000
     26       3.0446      1.00000
     27       5.4186      1.00000
     28       5.4186      1.00000
     29       5.5681      1.00000
     30       5.5681      1.00000
     31       5.5911      1.00000
     32       5.5911      1.00000
     33       6.4262      0.00000
     34       6.4262      0.00000
     35       6.8772      0.00000
     36       6.8772      0.00000
     37       6.9168      0.00000
     38       6.9168      0.00000
     39       6.9169      0.00000
     40       6.9169      0.00000
     41       6.9211      0.00000
     42       6.9211      0.00000
     43       6.9211      0.00000
     44       6.9211      0.00000
     45       8.2473      0.00000
     46       8.2474      0.00000
     47       8.7496      0.00000
     48       8.7497      0.00000
     49       8.7661      0.00000
     50       8.7661      0.00000
     51       9.6091      0.00000
     52       9.6091      0.00000
     53      13.1357      0.00000
     54      13.1357      0.00000
     55      13.7042      0.00000
     56      13.7042      0.00000
     57      14.0895      0.00000
     58      14.0896      0.00000
     59      15.0926      0.00000
     60      15.0976      0.00000
     61      15.2626      0.00000
     62      15.2627      0.00000
     63      15.2686      0.00000
     64      15.2687      0.00000

 k-point     3 :       0.2500    0.0000    0.0000
  band No.  band energies     occupation 
      1      -5.8575      1.00000
      2      -5.8575      1.00000
      3      -3.7348      1.00000
      4      -3.7348      1.00000
      5      -1.9079      1.00000
      6      -1.9079      1.00000
      7      -1.9079      1.00000
      8      -1.9079      1.00000
      9      -1.9044      1.00000
     10      -1.9044      1.00000
     11      -1.9043      1.00000
     12      -1.9043      1.00000
     13       0.0896      1.00000
     14       0.0896      1.00000
     15       2.4122      1.00000
     16       2.4122      1.00000
     17       2.4122      1.00000
     18       2.4122      1.00000
     19       2.4222      1.00000
     20       2.4222      1.00000
     21       2.4222      1.00000
     22       2.4222      1.00000
     23       3.2258      1.00000
[...]
 -0.001   0.000   0.006   0.000  -0.000   0.000   0.000   0.000  -0.000   0.000   0.000   0.000  -0.000   0.000   0.000   0.000
  0.000   0.000  -0.000   0.000   4.179   0.000   0.000   0.000  -0.000  -0.010  -0.005   0.000  -0.000   0.000   0.000   0.000
 -0.000   0.000   0.000   0.000   0.000   0.000   4.179   0.000   0.000   0.000  -0.000   0.000  -0.005   0.000  -0.000   0.000
  0.000   0.000  -0.000   0.000  -0.000   0.010   0.000   0.000   4.179   0.000   0.000  -0.000  -0.000   0.000  -0.005   0.000
 -0.000   0.000   0.000   0.000  -0.005   0.000  -0.000   0.000   0.000   0.000   0.005   0.000   0.000   0.000  -0.000  -0.000
 -0.000   0.000  -0.000   0.000  -0.000   0.000  -0.005   0.000  -0.000   0.000   0.000   0.000   0.005   0.000   0.000   0.000
 -0.000   0.000   0.000   0.000   0.000  -0.000  -0.000   0.000  -0.005   0.000  -0.000   0.000   0.000   0.000   0.005   0.000
 total augmentation occupancy for first ion, spin component:           1
  1.491  -0.858  -0.000  -0.000  -0.000   0.000   0.000   0.000
 -0.858   0.869   0.000   0.000   0.000  -0.000  -0.000  -0.000
 -0.000   0.000   1.028  -0.000  -0.000  -0.660  -0.000   0.000
 -0.000   0.000  -0.000   1.028  -0.000   0.000  -0.660  -0.000
 -0.000   0.000  -0.000  -0.000   1.028  -0.000   0.000  -0.660
  0.000  -0.000  -0.660   0.000  -0.000   0.483   0.000   0.000
  0.000  -0.000  -0.000  -0.660   0.000   0.000   0.483   0.000
  0.000  -0.000   0.000  -0.000  -0.660   0.000   0.000   0.483
 total augmentation occupancy for first ion, spin component:           2
  0.000   0.000   0.000   0.000  -0.000  -0.000   0.000   0.000
  0.000  -0.000   0.000   0.000  -0.000  -0.000  -0.000  -0.000
  0.000   0.000   0.000  -0.000   0.000   0.000  -0.000  -0.000
  0.000   0.000  -0.000   0.000   0.000  -0.000   0.000   0.000
 -0.000  -0.000   0.000   0.000   0.000   0.000   0.000   0.000
 -0.000  -0.000   0.000  -0.000   0.000  -0.000   0.000  -0.000
  0.000  -0.000  -0.000   0.000   0.000   0.000  -0.000  -0.000
  0.000  -0.000  -0.000   0.000   0.000  -0.000  -0.000  -0.000
 total augmentation occupancy for first ion, spin component:           3
  0.000   0.000  -0.000   0.000   0.000   0.000  -0.000   0.000
  0.000  -0.000  -0.000   0.000   0.000  -0.000  -0.000  -0.000
 -0.000  -0.000   0.000   0.000   0.000   0.000   0.000   0.000
  0.000   0.000   0.000   0.000  -0.000  -0.000   0.000  -0.000
  0.000   0.000   0.000  -0.000   0.000   0.000  -0.000   0.000
  0.000  -0.000   0.000  -0.000   0.000  -0.000  -0.000  -0.000
 -0.000  -0.000   0.000   0.000  -0.000  -0.000  -0.000   0.000
  0.000  -0.000   0.000  -0.000   0.000  -0.000   0.000  -0.000
 total augmentation occupancy for first ion, spin component:           4
  0.000   0.000   0.000  -0.000   0.000   0.000   0.000  -0.000
  0.000  -0.000   0.000  -0.000   0.000  -0.000  -0.000  -0.000
  0.000   0.000   0.000   0.000  -0.000   0.000   0.000  -0.000
 -0.000  -0.000   0.000   0.000   0.000   0.000   0.000   0.000
  0.000   0.000  -0.000   0.000   0.000  -0.000  -0.000   0.000
  0.000  -0.000   0.000   0.000  -0.000  -0.000  -0.000   0.000
  0.000  -0.000   0.000   0.000  -0.000  -0.000  -0.000  -0.000
 -0.000  -0.000  -0.000   0.000   0.000   0.000  -0.000  -0.000


------------------------ aborting loop because EDIFF is reached ----------------------------------------


    CHARGE:  cpu time    0.1710: real time    0.0855
    FORLOC:  cpu time    0.0016: real time    0.0008
    FORNL :  cpu time    0.7082: real time    0.5092
    STRESS:  cpu time    2.1996: real time    1.0998
    FORCOR:  cpu time    0.0256: real time    0.0128
    FORHAR:  cpu time    0.0036: real time    0.0018
    MIXING:  cpu time    0.0027: real time    0.0014
    OFIELD:  cpu time    0.0000: real time    0.0000

  FORCE on cell =-STRESS in cart. coord.  units (eV):
  Direction    XX          YY          ZZ          XY          YZ          ZX
  --------------------------------------------------------------------------------------
  Alpha Z    13.45657    13.45657    13.45657
  Ewald    -304.75190  -304.75190  -304.75190    -0.00000    -0.00000    -0.00000
  Hartree    19.87653    19.87653    19.87653    -0.00000    -0.00000    -0.00000
  E(xc)    -101.55767  -101.55767  -101.55767     0.00000     0.00000     0.00000
  Local    -117.37695  -117.37695  -117.37695     0.00000     0.00000     0.00000
  n-local   313.39570   313.85516   308.75757     0.12161    -0.65533     0.53372
  augment   -46.47408   -46.47408   -46.47408     0.00000    -0.00000     0.00000
  Kinetic   224.61524   225.80522   229.42759     0.18162    -1.36766     1.18604
  Fock        0.00000     0.00000     0.00000     0.00000     0.00000     0.00000
  -------------------------------------------------------------------------------------
  Total       1.79132     1.79132     1.79132     0.00000     0.00000     0.00000
  in kB      17.92603    17.92603    17.92603     0.00003     0.00003     0.00003
  external pressure =       17.93 kB  Pullay stress =        0.00 kB


 VOLUME and BASIS-vectors are now :
 -----------------------------------------------------------------------------
  energy-cutoff  :      245.34
  volume of cell :      160.10
      direct lattice vectors                 reciprocal lattice vectors
     5.430000000  0.000000000  0.000000000     0.184162063  0.000000000  0.000000000
     0.000000000  5.430000000  0.000000000     0.000000000  0.184162063  0.000000000
     0.000000000  0.000000000  5.430000000     0.000000000  0.000000000  0.184162063

  length of vectors
     5.430000000  5.430000000  5.430000000     0.184162063  0.184162063  0.184162063


 FORCES acting on ions
    electron-ion (+dipol)            ewald-force                    non-local-force                 convergence-correction
 -----------------------------------------------------------------------------------------------
   -.636E-06 -.636E-06 -.636E-06   -.355E-14 -.355E-14 0.000E+00   0.622E-06 0.622E-06 0.622E-06   0.221E-06 0.221E-06 0.221E-06
   -.636E-06 -.636E-06 -.636E-06   -.355E-14 -.355E-14 0.000E+00   0.622E-06 0.622E-06 0.622E-06   0.221E-06 0.221E-06 0.221E-06
   -.636E-06 -.636E-06 -.636E-06   -.355E-14 -.355E-14 0.000E+00   0.622E-06 0.622E-06 0.622E-06   0.221E-06 0.221E-06 0.221E-06
   -.636E-06 -.636E-06 -.636E-06   -.355E-14 -.355E-14 0.000E+00   0.622E-06 0.622E-06 0.622E-06   0.221E-06 0.221E-06 0.221E-06
   0.636E-06 0.636E-06 0.636E-06   0.336E-14 0.728E-14 0.376E-15   -.622E-06 -.622E-06 -.622E-06   -.221E-06 -.221E-06 -.221E-06
   0.636E-06 0.636E-06 0.636E-06   -.282E-15 0.729E-14 -.365E-15   -.622E-06 -.622E-06 -.622E-06   -.221E-06 -.221E-06 -.221E-06
   0.636E-06 0.636E-06 0.636E-06   -.372E-15 0.694E-14 0.295E-15   -.622E-06 -.622E-06 -.622E-06   -.221E-06 -.221E-06 -.221E-06
   0.636E-06 0.636E-06 0.636E-06   0.441E-14 0.695E-14 -.446E-15   -.622E-06 -.622E-06 -.622E-06   -.221E-06 -.221E-06 -.221E-06
 -----------------------------------------------------------------------------------------------
   -.123E-12 -.256E-12 -.261E-12   -.709E-14 0.143E-13 -.140E-15   0.139E-16 -.173E-16 0.208E-16   -.223E-14 0.794E-15 -.222E-14
 
 
 POSITION                                       TOTAL-FORCE (eV/Angst)
 -----------------------------------------------------------------------------------
      0.00000      0.00000      0.00000         0.000000      0.000000      0.000000
      0.00000      2.71500      2.71500         0.000000      0.000000      0.000000
      2.71500      2.71500      0.00000         0.000000      0.000000      0.000000
      2.71500      0.00000      2.71500         0.000000      0.000000      0.000000
      4.07250      1.35750      4.07250        -0.000000     -0.000000     -0.000000
      1.35750      1.35750      1.35750        -0.000000     -0.000000     -0.000000
      1.35750      4.07250      4.07250        -0.000000     -0.000000     -0.000000
      4.07250      4.07250      1.35750        -0.000000     -0.000000     -0.000000
 -----------------------------------------------------------------------------------
    total drift:                               -0.000000     -0.000000     -0.000000


--------------------------------------------------------------------------------------------------------



  FREE ENERGIE OF THE ION-ELECTRON SYSTEM (eV)
  ---------------------------------------------------
  free  energy   TOTEN  =       -43.28896325 eV

  energy  without entropy=      -43.28896325  energy(sigma->0) =      -43.28896325
 


--------------------------------------------------------------------------------------------------------


    POTLOK:  cpu time    0.0378: real time    0.0189


--------------------------------------------------------------------------------------------------------


     LOOP+:  cpu time  108.6200: real time   57.6388
    4ORBIT:  cpu time    0.0000: real time    0.0000

 Spin-Orbit-Coupling matrix elements

 Ion:    1  E_soc:     -0.0003217
 l=   1
     0.0000000    -0.0000536    -0.0000536
    -0.0000536     0.0000000    -0.0000536
    -0.0000536    -0.0000536     0.0000000
 l=   2
     0.0000000     0.0000000     0.0000000     0.0000000     0.0000000
     0.0000000     0.0000000     0.0000000     0.0000000     0.0000000
     0.0000000     0.0000000     0.0000000     0.0000000     0.0000000
     0.0000000     0.0000000     0.0000000     0.0000000     0.0000000
     0.0000000     0.0000000     0.0000000     0.0000000     0.0000000
 l=   3
     0.0000000     0.0000000     0.0000000     0.0000000     0.0000000     0.0000000     0.0000000
     0.0000000     0.0000000     0.0000000     0.0000000     0.0000000     0.0000000     0.0000000
     0.0000000     0.0000000     0.0000000     0.0000000     0.0000000     0.0000000     0.0000000
     0.0000000     0.0000000     0.0000000     0.0000000     0.0000000     0.0000000     0.0000000
     0.0000000     0.0000000     0.0000000     0.0000000     0.0000000     0.0000000     0.0000000
     0.0000000     0.0000000     0.0000000     0.0000000     0.0000000     0.0000000     0.0000000
     0.0000000     0.0000000     0.0000000     0.0000000     0.0000000     0.0000000     0.0000000

 Ion:    2  E_soc:     -0.0003217
 l=   1
     0.0000000    -0.0000536    -0.0000536
    -0.0000536     0.0000000    -0.0000536
    -0.0000536    -0.0000536     0.0000000
 l=   2
     0.0000000     0.0000000     0.0000000     0.0000000     0.0000000
     0.0000000     0.0000000     0.0000000     0.0000000     0.0000000
     0.0000000     0.0000000     0.0000000     0.0000000     0.0000000
     0.0000000     0.0000000     0.0000000     0.0000000     0.0000000
     0.0000000     0.0000000     0.0000000     0.0000000     0.0000000
 l=   3
     0.0000000     0.0000000     0.0000000     0.0000000     0.0000000     0.0000000     0.0000000
     0.0000000     0.0000000     0.0000000     0.0000000     0.0000000     0.0000000     0.0000000
     0.0000000     0.0000000     0.0000000     0.0000000     0.0000000     0.0000000     0.0000000
     0.0000000     0.0000000     0.0000000     0.0000000     0.0000000     0.0000000     0.0000000
     0.0000000     0.0000000     0.0000000     0.0000000     0.0000000     0.0000000     0.0000000
     0.0000000     0.0000000     0.0000000     0.0000000     0.0000000     0.0000000     0.0000000
     0.0000000     0.0000000     0.0000000     0.0000000     0.0000000     0.0000000     0.0000000

 Ion:    3  E_soc:     -0.0003217
 l=   1
     0.0000000    -0.0000536    -0.0000536
    -0.0000536     0.0000000    -0.0000536
    -0.0000536    -0.0000536     0.0000000
 l=   2
     0.0000000     0.0000000     0.0000000     0.0000000     0.0000000
     0.0000000     0.0000000     0.0000000     0.0000000     0.0000000
     0.0000000     0.0000000     0.0000000     0.0000000     0.0000000
     0.0000000     0.0000000     0.0000000     0.0000000     0.0000000
     0.0000000     0.0000000     0.0000000     0.0000000     0.0000000
 l=   3
     0.0000000     0.0000000     0.0000000     0.0000000     0.0000000     0.0000000     0.0000000
     0.0000000     0.0000000     0.0000000     0.0000000     0.0000000     0.0000000     0.0000000
     0.0000000     0.0000000     0.0000000     0.0000000     0.0000000     0.0000000     0.0000000
     0.0000000     0.0000000     0.0000000     0.0000000     0.0000000     0.0000000     0.0000000
     0.0000000     0.0000000     0.0000000     0.0000000     0.0000000     0.0000000     0.0000000
     0.0000000     0.0000000     0.0000000     0.0000000     0.0000000     0.0000000     0.0000000
     0.0000000     0.0000000     0.0000000     0.0000000     0.0000000     0.0000000     0.0000000

 Ion:    4  E_soc:     -0.0003217
 l=   1
     0.0000000    -0.0000536    -0.0000536
    -0.0000536     0.0000000    -0.0000536
    -0.0000536    -0.0000536     0.0000000
 l=   2
     0.0000000     0.0000000     0.0000000     0.0000000     0.0000000
     0.0000000     0.0000000     0.0000000     0.0000000     0.0000000
     0.0000000     0.0000000     0.0000000     0.0000000     0.0000000
     0.0000000     0.0000000     0.0000000     0.0000000     0.0000000
     0.0000000     0.0000000     0.0000000     0.0000000     0.0000000
 l=   3
     0.0000000     0.0000000     0.0000000     0.0000000     0.0000000     0.0000000     0.0000000
     0.0000000     0.0000000     0.0000000     0.0000000     0.0000000     0.0000000     0.0000000
     0.0000000     0.0000000     0.0000000     0.0000000     0.0000000     0.0000000     0.0000000
     0.0000000     0.0000000     0.0000000     0.0000000     0.0000000     0.0000000     0.0000000
     0.0000000     0.0000000     0.0000000     0.0000000     0.0000000     0.0000000     0.0000000
     0.0000000     0.0000000     0.0000000     0.0000000     0.0000000     0.0000000     0.0000000
     0.0000000     0.0000000     0.0000000     0.0000000     0.0000000     0.0000000     0.0000000

 Ion:    5  E_soc:     -0.0003217
 l=   1
     0.0000000    -0.0000536    -0.0000536
    -0.0000536     0.0000000    -0.0000536
    -0.0000536    -0.0000536     0.0000000
 l=   2
     0.0000000     0.0000000     0.0000000     0.0000000     0.0000000
     0.0000000     0.0000000     0.0000000     0.0000000     0.0000000
     0.0000000     0.0000000     0.0000000     0.0000000     0.0000000
     0.0000000     0.0000000     0.0000000     0.0000000     0.0000000
     0.0000000     0.0000000     0.0000000     0.0000000     0.0000000
 l=   3
     0.0000000     0.0000000     0.0000000     0.0000000     0.0000000     0.0000000     0.0000000
     0.0000000     0.0000000     0.0000000     0.0000000     0.0000000     0.0000000     0.0000000
     0.0000000     0.0000000     0.0000000     0.0000000     0.0000000     0.0000000     0.0000000
     0.0000000     0.0000000     0.0000000     0.0000000     0.0000000     0.0000000     0.0000000
     0.0000000     0.0000000     0.0000000     0.0000000     0.0000000     0.0000000     0.0000000
     0.0000000     0.0000000     0.0000000     0.0000000     0.0000000     0.0000000     0.0000000
     0.0000000     0.0000000     0.0000000     0.0000000     0.0000000     0.0000000     0.0000000

 Ion:    6  E_soc:     -0.0003217
 l=   1
     0.0000000    -0.0000536    -0.0000536
    -0.0000536     0.0000000    -0.0000536
    -0.0000536    -0.0000536     0.0000000
 l=   2
     0.0000000     0.0000000     0.0000000     0.0000000     0.0000000
     0.0000000     0.0000000     0.0000000     0.0000000     0.0000000
     0.0000000     0.0000000     0.0000000     0.0000000     0.0000000
     0.0000000     0.0000000     0.0000000     0.0000000     0.0000000
     0.0000000     0.0000000     0.0000000     0.0000000     0.0000000
 l=   3
     0.0000000     0.0000000     0.0000000     0.0000000     0.0000000     0.0000000     0.0000000
     0.0000000     0.0000000     0.0000000     0.0000000     0.0000000     0.0000000     0.0000000
     0.0000000     0.0000000     0.0000000     0.0000000     0.0000000     0.0000000     0.0000000
     0.0000000     0.0000000     0.0000000     0.0000000     0.0000000     0.0000000     0.0000000
     0.0000000     0.0000000     0.0000000     0.0000000     0.0000000     0.0000000     0.0000000
     0.0000000     0.0000000     0.0000000     0.0000000     0.0000000     0.0000000     0.0000000
     0.0000000     0.0000000     0.0000000     0.0000000     0.0000000     0.0000000     0.0000000

 Ion:    7  E_soc:     -0.0003217
 l=   1
     0.0000000    -0.0000536    -0.0000536
    -0.0000536     0.0000000    -0.0000536
    -0.0000536    -0.0000536     0.0000000
 l=   2
     0.0000000     0.0000000     0.0000000     0.0000000     0.0000000
     0.0000000     0.0000000     0.0000000     0.0000000     0.0000000
     0.0000000     0.0000000     0.0000000     0.0000000     0.0000000
     0.0000000     0.0000000     0.0000000     0.0000000     0.0000000
     0.0000000     0.0000000     0.0000000     0.0000000     0.0000000
 l=   3
     0.0000000     0.0000000     0.0000000     0.0000000     0.0000000     0.0000000     0.0000000
     0.0000000     0.0000000     0.0000000     0.0000000     0.0000000     0.0000000     0.0000000
     0.0000000     0.0000000     0.0000000     0.0000000     0.0000000     0.0000000     0.0000000
     0.0000000     0.0000000     0.0000000     0.0000000     0.0000000     0.0000000     0.0000000
     0.0000000     0.0000000     0.0000000     0.0000000     0.0000000     0.0000000     0.0000000
     0.0000000     0.0000000     0.0000000     0.0000000     0.0000000     0.0000000     0.0000000
     0.0000000     0.0000000     0.0000000     0.0000000     0.0000000     0.0000000     0.0000000

 Ion:    8  E_soc:     -0.0003217
 l=   1
     0.0000000    -0.0000536    -0.0000536
    -0.0000536     0.0000000    -0.0000536
    -0.0000536    -0.0000536     0.0000000
 l=   2
     0.0000000     0.0000000     0.0000000     0.0000000     0.0000000
     0.0000000     0.0000000     0.0000000     0.0000000     0.0000000
     0.0000000     0.0000000     0.0000000     0.0000000     0.0000000
     0.0000000     0.0000000     0.0000000     0.0000000     0.0000000
     0.0000000     0.0000000     0.0000000     0.0000000     0.0000000
 l=   3
     0.0000000     0.0000000     0.0000000     0.0000000     0.0000000     0.0000000     0.0000000
     0.0000000     0.0000000     0.0000000     0.0000000     0.0000000     0.0000000     0.0000000
     0.0000000     0.0000000     0.0000000     0.0000000     0.0000000     0.0000000     0.0000000
     0.0000000     0.0000000     0.0000000     0.0000000     0.0000000     0.0000000     0.0000000
     0.0000000     0.0000000     0.0000000     0.0000000     0.0000000     0.0000000     0.0000000
     0.0000000     0.0000000     0.0000000     0.0000000     0.0000000     0.0000000     0.0000000
     0.0000000     0.0000000     0.0000000     0.0000000     0.0000000     0.0000000     0.0000000
 BZINTS: Fermi energy:  5.885236; 32.000000 electrons
         Band energy:  24.640816;  BLOECHL correction:  0.000000

 total amount of memory used by VASP on root node    59514. kBytes
========================================================================

   base      :      30000. kBytes
   nonl-proj :       8384. kBytes
   fftplans  :        574. kBytes
   grid      :       3317. kBytes
   one-center:         98. kBytes
   wavefun   :      17141. kBytes
 
  
  
 General timing and accounting informations for this job:
 ========================================================
  
                  Total CPU time used (sec):      110.387
                            User time (sec):      108.414
                          System time (sec):        1.973
                         Elapsed time (sec):       59.364
  
                   Maximum memory used (kb):      134592.
                   Average memory used (kb):           0.
  
                          Minor page faults:        64124
                          Major page faults:            0
                 Voluntary context switches:         1589
