 vasp.5.4.1 05Feb16 (build Jun 14 2018 09:35:56) complex                        
  
 executed on           IFC91_ompi date 2022.04.18  16:38:27
 running on   16 total cores
 distrk:  each k-point on   16 cores,    1 groups
 distr:  one band on NCORES_PER_BAND=   1 cores,   16 groups


--------------------------------------------------------------------------------------------------------


 INCAR:
 POTCAR:   PAW_PBE Si 05Jan2001                   

 ----------------------------------------------------------------------------- 
|                                                                             |
|           W    W    AA    RRRRR   N    N  II  N    N   GGGG   !!!           |
|           W    W   A  A   R    R  NN   N  II  NN   N  G    G  !!!           |
|           W    W  A    A  R    R  N N  N  II  N N  N  G       !!!           |
|           W WW W  AAAAAA  RRRRR   N  N N  II  N  N N  G  GGG   !            |
|           WW  WW  A    A  R   R   N   NN  II  N   NN  G    G                |
|           W    W  A    A  R    R  N    N  II  N    N   GGGG   !!!           |
|                                                                             |
|      For optimal performance we recommend to set                            |
|        NCORE= 4 - approx SQRT( number of cores)                             |
|      NCORE specifies how many cores store one orbital (NPAR=cpu/NCORE).     |
|      This setting can  greatly improve the performance of VASP for DFT.     |
|      The default, NPAR=number of cores might be grossly inefficient         |
|      on modern multi-core architectures or massively parallel machines.     |
|      Do your own testing !!!!                                               |
|      Unfortunately you need to use the default for GW and RPA calculations. |
|      (for HF NCORE is supported but not extensively tested yet)             |
|                                                                             |
 ----------------------------------------------------------------------------- 

 POTCAR:   PAW_PBE Si 05Jan2001                   
   VRHFIN =Si: s2p2                                                             
   LEXCH  = PE                                                                  
   EATOM  =   103.0669 eV,    7.5752 Ry                                         
                                                                                
   TITEL  = PAW_PBE Si 05Jan2001                                                
   LULTRA =        F    use ultrasoft PP ?                                      
   IUNSCR =        1    unscreen: 0-lin 1-nonlin 2-no                           
   RPACOR =    1.500    partial core radius                                     
   POMASS =   28.085; ZVAL   =    4.000    mass and valenz                      
   RCORE  =    1.900    outmost cutoff radius                                   
   RWIGS  =    2.480; RWIGS  =    1.312    wigner-seitz radius (au A)           
   ENMAX  =  245.345; ENMIN  =  184.009 eV                                      
   ICORE  =        2    local potential                                         
   LCOR   =        T    correct aug charges                                     
   LPAW   =        T    paw PP                                                  
   EAUG   =  322.069                                                            
   DEXC   =    -.007                                                            
   RMAX   =    2.944    core radius for proj-oper                               
   RAUG   =    1.300    factor for augmentation sphere                          
   RDEP   =    1.993    radius for radial grids                                 
   QCUT   =   -4.246; QGAM   =    8.493    optimization parameters              
                                                                                
   Description                                                                  
     l     E      TYP  RCUT    TYP  RCUT                                        
     0   .000     23  1.900                                                     
     0   .000     23  1.900                                                     
     1   .000     23  1.900                                                     
     1   .000     23  1.900                                                     
     2   .000      7  1.900                                                     
  local pseudopotential read in
  partial core-charges read in
  atomic valenz-charges read in
  non local Contribution for L=           0  read in
    real space projection operators read in
  non local Contribution for L=           0  read in
    real space projection operators read in
  non local Contribution for L=           1  read in
    real space projection operators read in
  non local Contribution for L=           1  read in
    real space projection operators read in
    PAW grid and wavefunctions read in
 
   number of l-projection  operators is LMAX  =           4
   number of lm-projection operators is LMMAX =           8
 
 PAW_PBE Si 05Jan2001                   :
 energy of atom  1       EATOM= -103.0669
 kinetic energy error for atom=    0.0056 (will be added to EATOM!!)
 
 
 POSCAR: Si ! Bulk Si, Supercell                 
  positions in direct lattice
  No initial velocities read in
 exchange correlation table for  LEXCH =        8
   RHO(1)=    0.500       N(1)  =     2000
   RHO(2)=  100.500       N(2)  =     4000
 


--------------------------------------------------------------------------------------------------------


 ion  position               nearest neighbor table
   1  0.000  0.000  0.000-   5 2.35   6 2.35   7 2.35   8 2.35
   2  0.000  0.500  0.500-   5 2.35   6 2.35   7 2.35   8 2.35
   3  0.500  0.500  0.000-   5 2.35   6 2.35   7 2.35   8 2.35
   4  0.500  0.000  0.500-   5 2.35   6 2.35   7 2.35   8 2.35
   5  0.750  0.250  0.750-   1 2.35   2 2.35   3 2.35   4 2.35
   6  0.250  0.250  0.250-   1 2.35   2 2.35   3 2.35   4 2.35
   7  0.250  0.750  0.750-   1 2.35   2 2.35   3 2.35   4 2.35
   8  0.750  0.750  0.250-   1 2.35   2 2.35   3 2.35   4 2.35
 
  LATTYP: Found a simple cubic cell.
 ALAT       =     5.4300000000
  
  Lattice vectors:
  
 A1 = (   5.4300000000,   0.0000000000,   0.0000000000)
 A2 = (   0.0000000000,   5.4300000000,   0.0000000000)
 A3 = (   0.0000000000,   0.0000000000,   5.4300000000)


Analysis of symmetry for initial positions (statically):
=====================================================================
 Subroutine PRICEL returns following result:
 
  LATTYP: Found a face centered cubic cell.
 ALAT       =     5.4300000000
  
  Lattice vectors:
  
 A1 = (   2.7150000000,   2.7150000000,   0.0000000000)
 A2 = (   2.7150000000,   0.0000000000,  -2.7150000000)
 A3 = (   0.0000000000,   2.7150000000,  -2.7150000000)
 
   4 primitive cells build up your supercell.
 

 Routine SETGRP: Setting up the symmetry group for a 
 simple cubic supercell.


 Subroutine GETGRP returns: Found 48 space group operations
 (whereof 24 operations were pure point group operations)
 out of a pool of 48 trial point group operations.


The static configuration has the point symmetry T_d .
 The point group associated with its full space group is O_h .


Analysis of symmetry for dynamics (positions and initial velocities):
=====================================================================
 Subroutine PRICEL returns following result:
 
  LATTYP: Found a face centered cubic cell.
 ALAT       =     5.4300000000
  
  Lattice vectors:
  
 A1 = (   2.7150000000,   2.7150000000,   0.0000000000)
 A2 = (   2.7150000000,   0.0000000000,  -2.7150000000)
 A3 = (   0.0000000000,   2.7150000000,  -2.7150000000)
 
   4 primitive cells build up your supercell.
 

 Routine SETGRP: Setting up the symmetry group for a 
 simple cubic supercell.


 Subroutine GETGRP returns: Found 48 space group operations
 (whereof 24 operations were pure point group operations)
 out of a pool of 48 trial point group operations.


The dynamic configuration has the point symmetry T_d .
 The point group associated with its full space group is O_h .


 Subroutine INISYM returns: Found 48 space group operations
 (whereof 24 operations are pure point group operations),
 and found     4 'primitive' translations

 
 
 KPOINTS: K-Points                                

Automatic generation of k-mesh.
Space group operators:
 irot       det(A)        alpha          n_x          n_y          n_z        tau_x        tau_y        tau_z
    1     1.000000     0.000001     1.000000     0.000000     0.000000     0.000000     0.000000     0.000000
    2     1.000000   120.000000    -0.577350    -0.577350    -0.577350     0.000000     0.000000     0.000000
    3     1.000000   120.000000     0.577350     0.577350     0.577350     0.000000     0.000000     0.000000
    4    -1.000000    90.000000     0.000000     0.000000    -1.000000     0.000000     0.000000     0.000000
    5    -1.000000   180.000000     0.000000     0.707107     0.707107     0.000000     0.000000     0.000000
    6    -1.000000    90.000000     0.000000     1.000000     0.000000     0.000000     0.000000     0.000000
    7     1.000000   180.000000     0.000000     0.000000     1.000000     0.000000     0.000000     0.000000
    8     1.000000   120.000000    -0.577350     0.577350     0.577350     0.000000     0.000000     0.000000
    9     1.000000   120.000000    -0.577350     0.577350    -0.577350     0.000000     0.000000     0.000000
   10    -1.000000    90.000000     0.000000     0.000000     1.000000     0.000000     0.000000     0.000000
   11    -1.000000    90.000000    -1.000000     0.000000     0.000000     0.000000     0.000000     0.000000
   12    -1.000000   180.000000     0.707107     0.000000     0.707107     0.000000     0.000000     0.000000
   13     1.000000   120.000000     0.577350    -0.577350     0.577350     0.000000     0.000000     0.000000
   14     1.000000   120.000000    -0.577350    -0.577350     0.577350     0.000000     0.000000     0.000000
   15     1.000000   180.000000     1.000000     0.000000     0.000000     0.000000     0.000000     0.000000
   16    -1.000000    90.000000     0.000000    -1.000000     0.000000     0.000000     0.000000     0.000000
   17    -1.000000   180.000000     0.707107     0.707107     0.000000     0.000000     0.000000     0.000000
   18    -1.000000    90.000000     1.000000     0.000000     0.000000     0.000000     0.000000     0.000000
   19     1.000000   120.000000     0.577350    -0.577350    -0.577350     0.000000     0.000000     0.000000
   20     1.000000   180.000000     0.000000     1.000000     0.000000     0.000000     0.000000     0.000000
   21     1.000000   120.000000     0.577350     0.577350    -0.577350     0.000000     0.000000     0.000000
   22    -1.000000   180.000000     0.000000    -0.707107     0.707107     0.000000     0.000000     0.000000
   23    -1.000000   180.000000     0.707107    -0.707107     0.000000     0.000000     0.000000     0.000000
   24    -1.000000   180.000000     0.707107     0.000000    -0.707107     0.000000     0.000000     0.000000
   25    -1.000000     0.000001     1.000000     0.000000     0.000000     0.750000     0.750000    -0.750000
   26    -1.000000   120.000000    -0.577350    -0.577350    -0.577350     0.750000     0.750000    -0.750000
   27    -1.000000   120.000000     0.577350     0.577350     0.577350     0.750000     0.750000    -0.750000
   28     1.000000    90.000000     0.000000     0.000000    -1.000000     0.750000     0.750000    -0.750000
   29     1.000000   180.000000     0.000000     0.707107     0.707107     0.750000     0.750000    -0.750000
   30     1.000000    90.000000     0.000000     1.000000     0.000000     0.750000     0.750000    -0.750000
   31    -1.000000   180.000000     0.000000     0.000000     1.000000     0.750000     0.750000    -0.750000
   32    -1.000000   120.000000    -0.577350     0.577350     0.577350     0.750000     0.750000    -0.750000
   33    -1.000000   120.000000    -0.577350     0.577350    -0.577350     0.750000     0.750000    -0.750000
   34     1.000000    90.000000     0.000000     0.000000     1.000000     0.750000     0.750000    -0.750000
   35     1.000000    90.000000    -1.000000     0.000000     0.000000     0.750000     0.750000    -0.750000
   36     1.000000   180.000000     0.707107     0.000000     0.707107     0.750000     0.750000    -0.750000
   37    -1.000000   120.000000     0.577350    -0.577350     0.577350     0.750000     0.750000    -0.750000
   38    -1.000000   120.000000    -0.577350    -0.577350     0.577350     0.750000     0.750000    -0.750000
   39    -1.000000   180.000000     1.000000     0.000000     0.000000     0.750000     0.750000    -0.750000
   40     1.000000    90.000000     0.000000    -1.000000     0.000000     0.750000     0.750000    -0.750000
   41     1.000000   180.000000     0.707107     0.707107     0.000000     0.750000     0.750000    -0.750000
   42     1.000000    90.000000     1.000000     0.000000     0.000000     0.750000     0.750000    -0.750000
   43    -1.000000   120.000000     0.577350    -0.577350    -0.577350     0.750000     0.750000    -0.750000
   44    -1.000000   180.000000     0.000000     1.000000     0.000000     0.750000     0.750000    -0.750000
   45    -1.000000   120.000000     0.577350     0.577350    -0.577350     0.750000     0.750000    -0.750000
   46     1.000000   180.000000     0.000000    -0.707107     0.707107     0.750000     0.750000    -0.750000
   47     1.000000   180.000000     0.707107    -0.707107     0.000000     0.750000     0.750000    -0.750000
   48     1.000000   180.000000     0.707107     0.000000    -0.707107     0.750000     0.750000    -0.750000
 
 Subroutine IBZKPT returns following result:
 ===========================================
 
 Found     35 irreducible k-points:
 
 Following reciprocal coordinates:
            Coordinates               Weight
  0.000000  0.000000  0.000000      1.000000
  0.125000  0.000000  0.000000      6.000000
  0.250000  0.000000  0.000000      6.000000
  0.375000  0.000000  0.000000      6.000000
  0.500000  0.000000  0.000000      3.000000
  0.125000  0.125000  0.000000     12.000000
  0.250000  0.125000  0.000000     24.000000
  0.375000  0.125000  0.000000     24.000000
  0.500000  0.125000  0.000000     12.000000
  0.250000  0.250000  0.000000     12.000000
  0.375000  0.250000  0.000000     24.000000
  0.500000  0.250000  0.000000     12.000000
  0.375000  0.375000  0.000000     12.000000
  0.500000  0.375000  0.000000     12.000000
  0.500000  0.500000  0.000000      3.000000
  0.125000  0.125000  0.125000      8.000000
  0.250000  0.125000  0.125000     24.000000
  0.375000  0.125000  0.125000     24.000000
  0.500000  0.125000  0.125000     12.000000
  0.250000  0.250000  0.125000     24.000000
  0.375000  0.250000  0.125000     48.000000
  0.500000  0.250000  0.125000     24.000000
  0.375000  0.375000  0.125000     24.000000
  0.500000  0.375000  0.125000     24.000000
  0.500000  0.500000  0.125000      6.000000
  0.250000  0.250000  0.250000      8.000000
  0.375000  0.250000  0.250000     24.000000
  0.500000  0.250000  0.250000     12.000000
  0.375000  0.375000  0.250000     24.000000
  0.500000  0.375000  0.250000     24.000000
  0.500000  0.500000  0.250000      6.000000
  0.375000  0.375000  0.375000      8.000000
  0.500000  0.375000  0.375000     12.000000
  0.500000  0.500000  0.375000      6.000000
  0.500000  0.500000  0.500000      1.000000
 
 Following cartesian coordinates:
            Coordinates               Weight
  0.000000  0.000000  0.000000      1.000000
  0.125000  0.000000  0.000000      6.000000
  0.250000  0.000000  0.000000      6.000000
  0.375000  0.000000  0.000000      6.000000
  0.500000  0.000000  0.000000      3.000000
  0.125000  0.125000  0.000000     12.000000
  0.250000  0.125000  0.000000     24.000000
  0.375000  0.125000  0.000000     24.000000
  0.500000  0.125000  0.000000     12.000000
  0.250000  0.250000  0.000000     12.000000
  0.375000  0.250000  0.000000     24.000000
  0.500000  0.250000  0.000000     12.000000
  0.375000  0.375000  0.000000     12.000000
  0.500000  0.375000  0.000000     12.000000
  0.500000  0.500000  0.000000      3.000000
  0.125000  0.125000  0.125000      8.000000
  0.250000  0.125000  0.125000     24.000000
  0.375000  0.125000  0.125000     24.000000
  0.500000  0.125000  0.125000     12.000000
  0.250000  0.250000  0.125000     24.000000
  0.375000  0.250000  0.125000     48.000000
  0.500000  0.250000  0.125000     24.000000
  0.375000  0.375000  0.125000     24.000000
  0.500000  0.375000  0.125000     24.000000
  0.500000  0.500000  0.125000      6.000000
  0.250000  0.250000  0.250000      8.000000
  0.375000  0.250000  0.250000     24.000000
  0.500000  0.250000  0.250000     12.000000
  0.375000  0.375000  0.250000     24.000000
  0.500000  0.375000  0.250000     24.000000
  0.500000  0.500000  0.250000      6.000000
  0.375000  0.375000  0.375000      8.000000
  0.500000  0.375000  0.375000     12.000000
  0.500000  0.500000  0.375000      6.000000
  0.500000  0.500000  0.500000      1.000000
 
 TETIRR: Found    250 inequivalent tetrahedra from     3072


--------------------------------------------------------------------------------------------------------




 Dimension of arrays:
   k-points           NKPTS =     35   k-points in BZ     NKDIM =     35   number of bands    NBANDS=     32
   number of dos      NEDOS =    301   number of ions     NIONS =      8
   non local maximal  LDIM  =      4   non local SUM 2l+1 LMDIM =      8
   total plane-waves  NPLWV =  13824
   max r-space proj   IRMAX =      1   max aug-charges    IRDMAX=   3086
   dimension x,y,z NGX =    24 NGY =   24 NGZ =   24
   dimension x,y,z NGXF=    48 NGYF=   48 NGZF=   48
   support grid    NGXF=    48 NGYF=   48 NGZF=   48
   ions per type =               8
 NGX,Y,Z   is equivalent  to a cutoff of   7.35,  7.35,  7.35 a.u.
 NGXF,Y,Z  is equivalent  to a cutoff of  14.70, 14.70, 14.70 a.u.


 I would recommend the setting:
   dimension x,y,z NGX =    21 NGY =   21 NGZ =   21
 SYSTEM =  Bulk Silicon - Self Consistent calculat 
 POSCAR =  Si ! Bulk Si, Supercell                 

 Startparameter for this run:
   NWRITE =      2    write-flag & timer
   PREC   = normal    normal or accurate (medium, high low for compatibility)
   ISTART =      0    job   : 0-new  1-cont  2-samecut
   ICHARG =      2    charge: 1-file 2-atom 10-const
   ISPIN  =      1    spin polarized calculation?
   LNONCOLLINEAR =      F non collinear calculations
   LSORBIT =      F    spin-orbit coupling
   INIWAV =      1    electr: 0-lowe 1-rand  2-diag
   LASPH  =      F    aspherical Exc in radial PAW
   METAGGA=      F    non-selfconsistent MetaGGA calc.

 Electronic Relaxation 1
   ENCUT  =  245.3 eV  18.03 Ry    4.25 a.u.   6.93  6.93  6.93*2*pi/ulx,y,z
   ENINI  =  245.3     initial cutoff
   ENAUG  =  322.1 eV  augmentation charge cutoff
   NELM   =     60;   NELMIN=  8; NELMDL= -5     # of ELM steps 
   EDIFF  = 0.1E-05   stopping-criterion for ELM
   LREAL  =      F    real-space projection
   NLSPLINE    = F    spline interpolate recip. space projectors
   LCOMPAT=      F    compatible to vasp.4.4
   GGA_COMPAT  = T    GGA compatible to vasp.4.4-vasp.4.6
   LMAXPAW     = -100 max onsite density
   LMAXMIX     =    2 max onsite mixed and CHGCAR
   VOSKOWN=      0    Vosko Wilk Nusair interpolation
   ROPT   =    0.00000
 Ionic relaxation
   EDIFFG = 0.1E-04   stopping-criterion for IOM
   NSW    =      0    number of steps for IOM
   NBLOCK =      1;   KBLOCK =      1    inner block; outer block 
   IBRION =     -1    ionic relax: 0-MD 1-quasi-New 2-CG
   NFREE  =      0    steps in history (QN), initial steepest desc. (CG)
   ISIF   =      2    stress and relaxation
   IWAVPR =     10    prediction:  0-non 1-charg 2-wave 3-comb
   ISYM   =      2    0-nonsym 1-usesym 2-fastsym
   LCORR  =      T    Harris-Foulkes like correction to forces

   POTIM  = 0.5000    time-step for ionic-motion
   TEIN   =    0.0    initial temperature
   TEBEG  =    0.0;   TEEND  =   0.0 temperature during run
   SMASS  =  -3.00    Nose mass-parameter (am)
   estimated Nose-frequenzy (Omega)   =  0.10E-29 period in steps =****** mass=  -0.674E-27a.u.
   SCALEE = 1.0000    scale energy and forces
   NPACO  =    256;   APACO  = 16.0  distance and # of slots for P.C.
   PSTRESS=    0.0 pullay stress

  Mass of Ions in am
   POMASS =  28.09
  Ionic Valenz
   ZVAL   =   4.00
  Atomic Wigner-Seitz radii
   RWIGS  =  -1.00
  virtual crystal weights 
   VCA    =   1.00
   NELECT =      32.0000    total number of electrons
   NUPDOWN=      -1.0000    fix difference up-down

 DOS related values:
   EMIN   =  10.00;   EMAX   =-10.00  energy-range for DOS
   EFERMI =   0.00
   ISMEAR =    -5;   SIGMA  =   0.20  broadening in eV -4-tet -1-fermi 0-gaus

 Electronic relaxation 2 (details)
   IALGO  =     68    algorithm
   LDIAG  =      T    sub-space diagonalisation (order eigenvalues)
   LSUBROT=      F    optimize rotation matrix (better conditioning)
   TURBO    =      0    0=normal 1=particle mesh
   IRESTART =      0    0=no restart 2=restart with 2 vectors
   NREBOOT  =      0    no. of reboots
   NMIN     =      0    reboot dimension
   EREF     =   0.00    reference energy to select bands
   IMIX   =      4    mixing-type and parameters
     AMIX     =   0.40;   BMIX     =  1.00
     AMIX_MAG =   1.60;   BMIX_MAG =  1.00
     AMIN     =   0.10
     WC   =   100.;   INIMIX=   1;  MIXPRE=   1;  MAXMIX= -45

 Intra band minimization:
   WEIMIN = 0.0000     energy-eigenvalue tresh-hold
   EBREAK =  0.78E-08  absolut break condition
   DEPER  =   0.30     relativ break condition  

   TIME   =   0.40     timestep for ELM

  volume/ion in A,a.u.               =      20.01       135.05
  Fermi-wavevector in a.u.,A,eV,Ry     =   0.957176  1.808800 12.465458  0.916185
  Thomas-Fermi vector in A             =   2.086170
 
 Write flags
   LWAVE  =      F    write WAVECAR
   LCHARG =      T    write CHGCAR
   LVTOT  =      F    write LOCPOT, total local potential
   LVHAR  =      F    write LOCPOT, Hartree potential only
   LELF   =      F    write electronic localiz. function (ELF)
   LORBIT =      0    0 simple, 1 ext, 2 COOP (PROOUT)


 Dipole corrections
   LMONO  =      F    monopole corrections only (constant potential shift)
   LDIPOL =      F    correct potential (dipole corrections)
   IDIPOL =      0    1-x, 2-y, 3-z, 4-all directions 
   EPSILON=  1.0000000 bulk dielectric constant

 Exchange correlation treatment:
   GGA     =    --    GGA type
   LEXCH   =     8    internal setting for exchange type
   VOSKOWN=      0    Vosko Wilk Nusair interpolation
   LHFCALC =     F    Hartree Fock is set to
   LHFONE  =     F    Hartree Fock one center treatment
   AEXX    =    0.0000 exact exchange contribution

 Linear response parameters
   LEPSILON=     F    determine dielectric tensor
   LRPA    =     F    only Hartree local field effects (RPA)
   LNABLA  =     F    use nabla operator in PAW spheres
   LVEL    =     F    velocity operator in full k-point grid
   LINTERFAST=   F  fast interpolation
   KINTER  =     0    interpolate to denser k-point grid
   CSHIFT  =0.1000    complex shift for real part using Kramers Kronig
   OMEGAMAX=  -1.0    maximum frequency
   DEG_THRESHOLD= 0.2000000E-02 threshold for treating states as degnerate
   RTIME   =    0.100 relaxation time in fs

 Orbital magnetization related:
   ORBITALMAG=     F  switch on orbital magnetization
   LCHIMAG   =     F  perturbation theory with respect to B field
   DQ        =  0.001000  dq finite difference perturbation B field



--------------------------------------------------------------------------------------------------------


 Static calculation
 charge density and potential will be updated during run
 non-spin polarized calculation
 RMM-DIIS sequential band-by-band and
  variant of blocked Davidson during initial phase
 perform sub-space diagonalisation
    before iterative eigenvector-optimisation
 modified Broyden-mixing scheme, WC =      100.0
 initial mixing is a Kerker type mixing with AMIX =  0.4000 and BMIX =      1.0000
 Hartree-type preconditioning will be used
 using additional bands           16
 reciprocal scheme for non local part
 use partial core corrections
 calculate Harris-corrections to forces 
   (improved forces if not selfconsistent)
 use gradient corrections 
 use of overlap-Matrix (Vanderbilt PP)
 Fermi weights with tetrahedron method with Bloechl corrections


--------------------------------------------------------------------------------------------------------


  energy-cutoff  :      245.34
  volume of cell :      160.10
      direct lattice vectors                 reciprocal lattice vectors
     5.430000000  0.000000000  0.000000000     0.184162063  0.000000000  0.000000000
     0.000000000  5.430000000  0.000000000     0.000000000  0.184162063  0.000000000
     0.000000000  0.000000000  5.430000000     0.000000000  0.000000000  0.184162063

  length of vectors
     5.430000000  5.430000000  5.430000000     0.184162063  0.184162063  0.184162063


 
 k-points in units of 2pi/SCALE and weight: K-Points                                
   0.00000000  0.00000000  0.00000000       0.002
   0.12500000  0.00000000  0.00000000       0.012
   0.25000000  0.00000000  0.00000000       0.012
   0.37500000  0.00000000  0.00000000       0.012
   0.50000000  0.00000000  0.00000000       0.006
   0.12500000  0.12500000  0.00000000       0.023
   0.25000000  0.12500000  0.00000000       0.047
   0.37500000  0.12500000  0.00000000       0.047
   0.50000000  0.12500000  0.00000000       0.023
   0.25000000  0.25000000  0.00000000       0.023
   0.37500000  0.25000000  0.00000000       0.047
   0.50000000  0.25000000  0.00000000       0.023
   0.37500000  0.37500000  0.00000000       0.023
   0.50000000  0.37500000  0.00000000       0.023
   0.50000000  0.50000000  0.00000000       0.006
   0.12500000  0.12500000  0.12500000       0.016
   0.25000000  0.12500000  0.12500000       0.047
   0.37500000  0.12500000  0.12500000       0.047
   0.50000000  0.12500000  0.12500000       0.023
   0.25000000  0.25000000  0.12500000       0.047
   0.37500000  0.25000000  0.12500000       0.094
   0.50000000  0.25000000  0.12500000       0.047
   0.37500000  0.37500000  0.12500000       0.047
   0.50000000  0.37500000  0.12500000       0.047
   0.50000000  0.50000000  0.12500000       0.012
   0.25000000  0.25000000  0.25000000       0.016
   0.37500000  0.25000000  0.25000000       0.047
   0.50000000  0.25000000  0.25000000       0.023
   0.37500000  0.37500000  0.25000000       0.047
   0.50000000  0.37500000  0.25000000       0.047
   0.50000000  0.50000000  0.25000000       0.012
   0.37500000  0.37500000  0.37500000       0.016
   0.50000000  0.37500000  0.37500000       0.023
   0.50000000  0.50000000  0.37500000       0.012
   0.50000000  0.50000000  0.50000000       0.002
 
 k-points in reciprocal lattice and weights: K-Points                                
   0.00000000  0.00000000  0.00000000       0.002
   0.12500000  0.00000000  0.00000000       0.012
   0.25000000  0.00000000  0.00000000       0.012
   0.37500000  0.00000000  0.00000000       0.012
   0.50000000  0.00000000  0.00000000       0.006
   0.12500000  0.12500000  0.00000000       0.023
   0.25000000  0.12500000  0.00000000       0.047
   0.37500000  0.12500000  0.00000000       0.047
   0.50000000  0.12500000  0.00000000       0.023
   0.25000000  0.25000000  0.00000000       0.023
   0.37500000  0.25000000  0.00000000       0.047
   0.50000000  0.25000000  0.00000000       0.023
   0.37500000  0.37500000  0.00000000       0.023
   0.50000000  0.37500000  0.00000000       0.023
   0.50000000  0.50000000  0.00000000       0.006
   0.12500000  0.12500000  0.12500000       0.016
   0.25000000  0.12500000  0.12500000       0.047
   0.37500000  0.12500000  0.12500000       0.047
   0.50000000  0.12500000  0.12500000       0.023
   0.25000000  0.25000000  0.12500000       0.047
   0.37500000  0.25000000  0.12500000       0.094
   0.50000000  0.25000000  0.12500000       0.047
   0.37500000  0.37500000  0.12500000       0.047
   0.50000000  0.37500000  0.12500000       0.047
   0.50000000  0.50000000  0.12500000       0.012
   0.25000000  0.25000000  0.25000000       0.016
   0.37500000  0.25000000  0.25000000       0.047
   0.50000000  0.25000000  0.25000000       0.023
   0.37500000  0.37500000  0.25000000       0.047
   0.50000000  0.37500000  0.25000000       0.047
   0.50000000  0.50000000  0.25000000       0.012
   0.37500000  0.37500000  0.37500000       0.016
   0.50000000  0.37500000  0.37500000       0.023
   0.50000000  0.50000000  0.37500000       0.012
   0.50000000  0.50000000  0.50000000       0.002
 
 position of ions in fractional coordinates (direct lattice) 
   0.00000000  0.00000000  0.00000000
   0.00000000  0.50000000  0.50000000
   0.50000000  0.50000000  0.00000000
   0.50000000  0.00000000  0.50000000
   0.75000000  0.25000000  0.75000000
   0.25000000  0.25000000  0.25000000
   0.25000000  0.75000000  0.75000000
   0.75000000  0.75000000  0.25000000
 
 position of ions in cartesian coordinates  (Angst):
   0.00000000  0.00000000  0.00000000
   0.00000000  2.71500000  2.71500000
   2.71500000  2.71500000  0.00000000
   2.71500000  0.00000000  2.71500000
   4.07250000  1.35750000  4.07250000
   1.35750000  1.35750000  1.35750000
   1.35750000  4.07250000  4.07250000
   4.07250000  4.07250000  1.35750000
 


--------------------------------------------------------------------------------------------------------


 k-point  1 :   0.0000 0.0000 0.0000  plane waves:    1365
 k-point  2 :   0.1250 0.0000 0.0000  plane waves:    1370
 k-point  3 :   0.2500 0.0000 0.0000  plane waves:    1406
 k-point  4 :   0.3750 0.0000 0.0000  plane waves:    1398
 k-point  5 :   0.5000 0.0000 0.0000  plane waves:    1406
 k-point  6 :   0.1250 0.1250 0.0000  plane waves:    1388
 k-point  7 :   0.2500 0.1250 0.0000  plane waves:    1393
 k-point  8 :   0.3750 0.1250 0.0000  plane waves:    1392
 k-point  9 :   0.5000 0.1250 0.0000  plane waves:    1406
 k-point 10 :   0.2500 0.2500 0.0000  plane waves:    1376
 k-point 11 :   0.3750 0.2500 0.0000  plane waves:    1396
 k-point 12 :   0.5000 0.2500 0.0000  plane waves:    1390
 k-point 13 :   0.3750 0.3750 0.0000  plane waves:    1400
 k-point 14 :   0.5000 0.3750 0.0000  plane waves:    1396
 k-point 15 :   0.5000 0.5000 0.0000  plane waves:    1372
 k-point 16 :   0.1250 0.1250 0.1250  plane waves:    1391
 k-point 17 :   0.2500 0.1250 0.1250  plane waves:    1397
 k-point 18 :   0.3750 0.1250 0.1250  plane waves:    1392
 k-point 19 :   0.5000 0.1250 0.1250  plane waves:    1410
 k-point 20 :   0.2500 0.2500 0.1250  plane waves:    1393
 k-point 21 :   0.3750 0.2500 0.1250  plane waves:    1392
 k-point 22 :   0.5000 0.2500 0.1250  plane waves:    1402
 k-point 23 :   0.3750 0.3750 0.1250  plane waves:    1406
 k-point 24 :   0.5000 0.3750 0.1250  plane waves:    1402
 k-point 25 :   0.5000 0.5000 0.1250  plane waves:    1404
 k-point 26 :   0.2500 0.2500 0.2500  plane waves:    1394
 k-point 27 :   0.3750 0.2500 0.2500  plane waves:    1407
 k-point 28 :   0.5000 0.2500 0.2500  plane waves:    1402
 k-point 29 :   0.3750 0.3750 0.2500  plane waves:    1412
 k-point 30 :   0.5000 0.3750 0.2500  plane waves:    1408
 k-point 31 :   0.5000 0.5000 0.2500  plane waves:    1420
 k-point 32 :   0.3750 0.3750 0.3750  plane waves:    1403
 k-point 33 :   0.5000 0.3750 0.3750  plane waves:    1402
 k-point 34 :   0.5000 0.5000 0.3750  plane waves:    1396
 k-point 35 :   0.5000 0.5000 0.5000  plane waves:    1376

 maximum and minimum number of plane-waves per node :      1420     1365

 maximum number of plane-waves:      1420
 maximum index in each direction: 
   IXMAX=    6   IYMAX=    6   IZMAX=    6
   IXMIN=   -7   IYMIN=   -7   IZMIN=   -7

 WARNING: aliasing errors must be expected set NGX to  28 to avoid them
 WARNING: aliasing errors must be expected set NGY to  28 to avoid them
 WARNING: aliasing errors must be expected set NGZ to  28 to avoid them
 aliasing errors are usually negligible using standard VASP settings
 and one can safely disregard these warnings

 serial   3D FFT for wavefunctions
 parallel 3D FFT for charge:
    minimum data exchange during FFTs selected (reduces bandwidth)


 total amount of memory used by VASP on root node    36631. kBytes
========================================================================

   base      :      30000. kBytes
   nonl-proj :       3372. kBytes
   fftplans  :        574. kBytes
   grid      :        995. kBytes
   one-center:         24. kBytes
   wavefun   :       1666. kBytes
 
     INWAV:  cpu time    0.0000: real time    0.0000
 Broyden mixing: mesh for mixing (old mesh)
   NGX = 13   NGY = 13   NGZ = 13
  (NGX  = 48   NGY  = 48   NGZ  = 48)
  gives a total of   2197 points

 initial charge density was supplied:
 charge density of overlapping atoms calculated
 number of electron      32.0000000 magnetization 
 keeping initial charge density in first step


--------------------------------------------------------------------------------------------------------


 Maximum index for augmentation-charges          241 (set IRDMAX)


--------------------------------------------------------------------------------------------------------


 First call to EWALD:  gamma=   0.326
 Maximum number of real-space cells 3x 3x 3
 Maximum number of reciprocal cells 3x 3x 3

 FEWALD executed in parallel
    FEWALD:  cpu time    0.0034: real time    0.0017


----------------------------------------- Iteration    1(   1)  ---------------------------------------


    POTLOK:  cpu time    0.0161: real time    0.0080
    SETDIJ:  cpu time    0.0029: real time    0.0014
     EDDAV:  cpu time    0.8598: real time    0.4299
 BZINTS: Fermi energy:  8.727071; 32.000000 electrons
         Band energy:  70.501511;  BLOECHL correction: -0.057318
       DOS:  cpu time    0.0203: real time    0.0101
    --------------------------------------------
      LOOP:  cpu time    0.9038: real time    0.4529

 eigenvalue-minimisations  :  2240
 total energy-change (2. order) : 0.1652933E+02  (-0.7379906E+03)
 number of electron      32.0000000 magnetization 
 augmentation part       32.0000000 magnetization 

 Free energy of the ion-electron system (eV)
  ---------------------------------------------------
  alpha Z        PSCENC =        13.45656811
  Ewald energy   TEWEN  =      -914.25413255
  -Hartree energ DENC   =       -44.00432972
  -exchange      EXHF   =         0.00000000
  -V(xc)+E(xc)   XCENC  =       -74.40730106
  PAW double counting   =       263.82083246     -123.07410713
  entropy T*S    EENTRO =         0.00000000
  eigenvalues    EBANDS =        70.50151095
  atomic energy  EATOM  =       824.49028925
  Solvation  Ediel_sol  =         0.00000000
  ---------------------------------------------------
  free energy    TOTEN  =        16.52933030 eV

  energy without entropy =       16.52933030  energy(sigma->0) =       16.52933030


--------------------------------------------------------------------------------------------------------




----------------------------------------- Iteration    1(   2)  ---------------------------------------


     EDDAV:  cpu time    1.2181: real time    0.6109
 BZINTS: Fermi energy:  5.455417; 32.000000 electrons
         Band energy:  11.921491;  BLOECHL correction:  0.000000
       DOS:  cpu time    0.0069: real time    0.0029
    --------------------------------------------
      LOOP:  cpu time    1.2451: real time    0.6253

 eigenvalue-minimisations  :  3280
 total energy-change (2. order) :-0.5858002E+02  (-0.5367292E+02)
 number of electron      32.0000000 magnetization 
 augmentation part       32.0000000 magnetization 

 Free energy of the ion-electron system (eV)
  ---------------------------------------------------
  alpha Z        PSCENC =        13.45656811
  Ewald energy   TEWEN  =      -914.25413255
  -Hartree energ DENC   =       -44.00432972
  -exchange      EXHF   =         0.00000000
  -V(xc)+E(xc)   XCENC  =       -74.40730106
  PAW double counting   =       263.82083246     -123.07410713
  entropy T*S    EENTRO =         0.00000000
  eigenvalues    EBANDS =        11.92149133
  atomic energy  EATOM  =       824.49028925
  Solvation  Ediel_sol  =         0.00000000
  ---------------------------------------------------
  free energy    TOTEN  =       -42.05068932 eV

  energy without entropy =      -42.05068932  energy(sigma->0) =      -42.05068932


--------------------------------------------------------------------------------------------------------




----------------------------------------- Iteration    1(   3)  ---------------------------------------


     EDDAV:  cpu time    1.0297: real time    0.5146
 BZINTS: Fermi energy:  5.356260; 32.000000 electrons
         Band energy:   9.985278;  BLOECHL correction:  0.000000
       DOS:  cpu time    0.0059: real time    0.0029
    --------------------------------------------
      LOOP:  cpu time    1.0463: real time    0.5236

 eigenvalue-minimisations  :  2816
 total energy-change (2. order) :-0.1936214E+01  (-0.1930878E+01)
 number of electron      32.0000000 magnetization 
 augmentation part       32.0000000 magnetization 

 Free energy of the ion-electron system (eV)
  ---------------------------------------------------
  alpha Z        PSCENC =        13.45656811
  Ewald energy   TEWEN  =      -914.25413255
  -Hartree energ DENC   =       -44.00432972
  -exchange      EXHF   =         0.00000000
  -V(xc)+E(xc)   XCENC  =       -74.40730106
  PAW double counting   =       263.82083246     -123.07410713
  entropy T*S    EENTRO =         0.00000000
  eigenvalues    EBANDS =         9.98527753
  atomic energy  EATOM  =       824.49028925
  Solvation  Ediel_sol  =         0.00000000
  ---------------------------------------------------
  free energy    TOTEN  =       -43.98690311 eV

  energy without entropy =      -43.98690311  energy(sigma->0) =      -43.98690311


--------------------------------------------------------------------------------------------------------




----------------------------------------- Iteration    1(   4)  ---------------------------------------


     EDDAV:  cpu time    1.1582: real time    0.5791
 BZINTS: Fermi energy:  5.356035; 32.000000 electrons
         Band energy:   9.968421;  BLOECHL correction:  0.000000
       DOS:  cpu time    0.0060: real time    0.0030
    --------------------------------------------
      LOOP:  cpu time    1.1723: real time    0.5879

 eigenvalue-minimisations  :  3168
 total energy-change (2. order) :-0.1685689E-01  (-0.1685445E-01)
 number of electron      32.0000000 magnetization 
 augmentation part       32.0000000 magnetization 

 Free energy of the ion-electron system (eV)
  ---------------------------------------------------
  alpha Z        PSCENC =        13.45656811
  Ewald energy   TEWEN  =      -914.25413255
  -Hartree energ DENC   =       -44.00432972
  -exchange      EXHF   =         0.00000000
  -V(xc)+E(xc)   XCENC  =       -74.40730106
  PAW double counting   =       263.82083246     -123.07410713
  entropy T*S    EENTRO =         0.00000000
  eigenvalues    EBANDS =         9.96842064
  atomic energy  EATOM  =       824.49028925
  Solvation  Ediel_sol  =         0.00000000
  ---------------------------------------------------
  free energy    TOTEN  =       -44.00376001 eV

  energy without entropy =      -44.00376001  energy(sigma->0) =      -44.00376001


--------------------------------------------------------------------------------------------------------




----------------------------------------- Iteration    1(   5)  ---------------------------------------


     EDDAV:  cpu time    0.9995: real time    0.4998
 BZINTS: Fermi energy:  5.351696; 32.000000 electrons
         Band energy:   9.968180;  BLOECHL correction:  0.000000
       DOS:  cpu time    0.0058: real time    0.0029
    CHARGE:  cpu time    0.0407: real time    0.0204
    MIXING:  cpu time    0.0010: real time    0.0005
    --------------------------------------------
      LOOP:  cpu time    1.0554: real time    0.5294

 eigenvalue-minimisations  :  2752
 total energy-change (2. order) :-0.2406400E-03  (-0.2406371E-03)
 number of electron      32.0000060 magnetization 
 augmentation part       -1.8773196 magnetization 

 Broyden mixing:
  rms(total) = 0.59966E+00    rms(broyden)= 0.59959E+00
  rms(prec ) = 0.11175E+01
  weight for this iteration     100.00

 Free energy of the ion-electron system (eV)
  ---------------------------------------------------
  alpha Z        PSCENC =        13.45656811
  Ewald energy   TEWEN  =      -914.25413255
  -Hartree energ DENC   =       -44.00432972
  -exchange      EXHF   =         0.00000000
  -V(xc)+E(xc)   XCENC  =       -74.40730106
  PAW double counting   =       263.82083246     -123.07410713
  entropy T*S    EENTRO =         0.00000000
  eigenvalues    EBANDS =         9.96818000
  atomic energy  EATOM  =       824.49028925
  Solvation  Ediel_sol  =         0.00000000
  ---------------------------------------------------
  free energy    TOTEN  =       -44.00400065 eV

  energy without entropy =      -44.00400065  energy(sigma->0) =      -44.00400065


--------------------------------------------------------------------------------------------------------




----------------------------------------- Iteration    1(   6)  ---------------------------------------


    POTLOK:  cpu time    0.0139: real time    0.0069
    SETDIJ:  cpu time    0.0022: real time    0.0011
    EDDIAG:  cpu time    0.1937: real time    0.0968
  RMM-DIIS:  cpu time    0.4485: real time    0.2243
    ORTHCH:  cpu time    0.0245: real time    0.0122
 BZINTS: Fermi energy:  5.535142; 32.000000 electrons
         Band energy:  15.926451;  BLOECHL correction:  0.000000
       DOS:  cpu time    0.0058: real time    0.0029
    CHARGE:  cpu time    0.0413: real time    0.0207
    MIXING:  cpu time    0.0012: real time    0.0006
    --------------------------------------------
      LOOP:  cpu time    0.7353: real time    0.3693

 eigenvalue-minimisations  :  2248
 total energy-change (2. order) : 0.4953785E+00  (-0.2089626E-01)
 number of electron      32.0000059 magnetization 
 augmentation part       -1.8540270 magnetization 

 Broyden mixing:
  rms(total) = 0.35561E+00    rms(broyden)= 0.35561E+00
  rms(prec ) = 0.65964E+00
  weight for this iteration     100.00

 eigenvalues of (default mixing * dielectric matrix)
  average eigenvalue GAMMA=   2.4371
  2.4371

 Free energy of the ion-electron system (eV)
  ---------------------------------------------------
  alpha Z        PSCENC =        13.45656811
  Ewald energy   TEWEN  =      -914.25413255
  -Hartree energ DENC   =       -49.97586217
  -exchange      EXHF   =         0.00000000
  -V(xc)+E(xc)   XCENC  =       -73.44544593
  PAW double counting   =       280.91534513     -140.62183486
  entropy T*S    EENTRO =         0.00000000
  eigenvalues    EBANDS =        15.92645083
  atomic energy  EATOM  =       824.49028925
  Solvation  Ediel_sol  =         0.00000000
  ---------------------------------------------------
  free energy    TOTEN  =       -43.50862218 eV

  energy without entropy =      -43.50862218  energy(sigma->0) =      -43.50862218


--------------------------------------------------------------------------------------------------------




----------------------------------------- Iteration    1(   7)  ---------------------------------------


    POTLOK:  cpu time    0.0141: real time    0.0071
    SETDIJ:  cpu time    0.0022: real time    0.0011
    EDDIAG:  cpu time    0.1919: real time    0.0966
  RMM-DIIS:  cpu time    0.4702: real time    0.2344
    ORTHCH:  cpu time    0.0226: real time    0.0113
 BZINTS: Fermi energy:  5.893067; 32.000000 electrons
         Band energy:  24.824419;  BLOECHL correction:  0.000000
       DOS:  cpu time    0.0055: real time    0.0028
    CHARGE:  cpu time    0.0392: real time    0.0196
    MIXING:  cpu time    0.0012: real time    0.0006
    --------------------------------------------
      LOOP:  cpu time    0.7513: real time    0.3774

 eigenvalue-minimisations  :  2270
 total energy-change (2. order) : 0.2260877E+00  (-0.4291117E-01)
 number of electron      32.0000058 magnetization 
 augmentation part       -1.8258901 magnetization 

 Broyden mixing:
  rms(total) = 0.30198E-01    rms(broyden)= 0.30194E-01
  rms(prec ) = 0.51726E-01
  weight for this iteration     100.00

 eigenvalues of (default mixing * dielectric matrix)
  average eigenvalue GAMMA=   2.4721
  2.4721  2.4721

 Free energy of the ion-electron system (eV)
  ---------------------------------------------------
  alpha Z        PSCENC =        13.45656811
  Ewald energy   TEWEN  =      -914.25413255
  -Hartree energ DENC   =       -59.64442145
  -exchange      EXHF   =         0.00000000
  -V(xc)+E(xc)   XCENC  =       -71.86227411
  PAW double counting   =       303.94599404     -164.23897687
  entropy T*S    EENTRO =         0.00000000
  eigenvalues    EBANDS =        24.82441907
  atomic energy  EATOM  =       824.49028925
  Solvation  Ediel_sol  =         0.00000000
  ---------------------------------------------------
  free energy    TOTEN  =       -43.28253452 eV

  energy without entropy =      -43.28253452  energy(sigma->0) =      -43.28253452


--------------------------------------------------------------------------------------------------------




----------------------------------------- Iteration    1(   8)  ---------------------------------------


    POTLOK:  cpu time    0.0130: real time    0.0065
    SETDIJ:  cpu time    0.0022: real time    0.0011
    EDDIAG:  cpu time    0.1918: real time    0.0959
  RMM-DIIS:  cpu time    0.5475: real time    0.2738
    ORTHCH:  cpu time    0.0227: real time    0.0113
 BZINTS: Fermi energy:  5.881584; 32.000000 electrons
         Band energy:  24.502522;  BLOECHL correction:  0.000000
       DOS:  cpu time    0.0058: real time    0.0029
    CHARGE:  cpu time    0.0390: real time    0.0195
    MIXING:  cpu time    0.0012: real time    0.0006
    --------------------------------------------
      LOOP:  cpu time    0.8272: real time    0.4152

 eigenvalue-minimisations  :  2452
 total energy-change (2. order) :-0.4708511E-02  (-0.7982006E-03)
 number of electron      32.0000059 magnetization 
 augmentation part       -1.8297504 magnetization 

 Broyden mixing:
  rms(total) = 0.46154E-02    rms(broyden)= 0.46149E-02
  rms(prec ) = 0.93687E-02
  weight for this iteration     100.00

 eigenvalues of (default mixing * dielectric matrix)
  average eigenvalue GAMMA=   2.1471
  1.3472  2.8176  2.2765

 Free energy of the ion-electron system (eV)
  ---------------------------------------------------
  alpha Z        PSCENC =        13.45656811
  Ewald energy   TEWEN  =      -914.25413255
  -Hartree energ DENC   =       -59.47183261
  -exchange      EXHF   =         0.00000000
  -V(xc)+E(xc)   XCENC  =       -71.83540914
  PAW double counting   =       300.25094781     -160.42619597
  entropy T*S    EENTRO =         0.00000000
  eigenvalues    EBANDS =        24.50252207
  atomic energy  EATOM  =       824.49028925
  Solvation  Ediel_sol  =         0.00000000
  ---------------------------------------------------
  free energy    TOTEN  =       -43.28724303 eV

  energy without entropy =      -43.28724303  energy(sigma->0) =      -43.28724303


--------------------------------------------------------------------------------------------------------




----------------------------------------- Iteration    1(   9)  ---------------------------------------


    POTLOK:  cpu time    0.0126: real time    0.0063
    SETDIJ:  cpu time    0.0022: real time    0.0011
    EDDIAG:  cpu time    0.1912: real time    0.0956
  RMM-DIIS:  cpu time    0.5991: real time    0.2996
    ORTHCH:  cpu time    0.0227: real time    0.0114
 BZINTS: Fermi energy:  5.883995; 32.000000 electrons
         Band energy:  24.595246;  BLOECHL correction:  0.000000
       DOS:  cpu time    0.0055: real time    0.0028
    CHARGE:  cpu time    0.0385: real time    0.0192
    MIXING:  cpu time    0.0011: real time    0.0006
    --------------------------------------------
      LOOP:  cpu time    0.8775: real time    0.4405

 eigenvalue-minimisations  :  2554
 total energy-change (2. order) :-0.3654485E-03  (-0.5560169E-04)
 number of electron      32.0000059 magnetization 
 augmentation part       -1.8301847 magnetization 

 Broyden mixing:
  rms(total) = 0.24362E-02    rms(broyden)= 0.24360E-02
  rms(prec ) = 0.42504E-02
  weight for this iteration     100.00

 eigenvalues of (default mixing * dielectric matrix)
  average eigenvalue GAMMA=   2.4038
  1.0147  3.5681  2.2963  2.7361

 Free energy of the ion-electron system (eV)
  ---------------------------------------------------
  alpha Z        PSCENC =        13.45656811
  Ewald energy   TEWEN  =      -914.25413255
  -Hartree energ DENC   =       -59.58825148
  -exchange      EXHF   =         0.00000000
  -V(xc)+E(xc)   XCENC  =       -71.81403982
  PAW double counting   =       300.15139773     -160.32468576
  entropy T*S    EENTRO =         0.00000000
  eigenvalues    EBANDS =        24.59524604
  atomic energy  EATOM  =       824.49028925
  Solvation  Ediel_sol  =         0.00000000
  ---------------------------------------------------
  free energy    TOTEN  =       -43.28760848 eV

  energy without entropy =      -43.28760848  energy(sigma->0) =      -43.28760848


--------------------------------------------------------------------------------------------------------




----------------------------------------- Iteration    1(  10)  ---------------------------------------


    POTLOK:  cpu time    0.0129: real time    0.0065
    SETDIJ:  cpu time    0.0023: real time    0.0012
    EDDIAG:  cpu time    0.1906: real time    0.0953
  RMM-DIIS:  cpu time    0.6160: real time    0.3080
    ORTHCH:  cpu time    0.0227: real time    0.0113
 BZINTS: Fermi energy:  5.885935; 32.000000 electrons
         Band energy:  24.660317;  BLOECHL correction:  0.000000
       DOS:  cpu time    0.0059: real time    0.0029
    CHARGE:  cpu time    0.0394: real time    0.0197
    MIXING:  cpu time    0.0011: real time    0.0006
    --------------------------------------------
      LOOP:  cpu time    0.8951: real time    0.4493

 eigenvalue-minimisations  :  2446
 total energy-change (2. order) :-0.7463424E-04  (-0.1771002E-04)
 number of electron      32.0000059 magnetization 
 augmentation part       -1.8299325 magnetization 

 Broyden mixing:
  rms(total) = 0.52655E-03    rms(broyden)= 0.52605E-03
  rms(prec ) = 0.10081E-02
  weight for this iteration     100.00

 eigenvalues of (default mixing * dielectric matrix)
  average eigenvalue GAMMA=   2.0384
  3.1635  2.6131  2.2057  0.9669  1.2425

 Free energy of the ion-electron system (eV)
  ---------------------------------------------------
  alpha Z        PSCENC =        13.45656811
  Ewald energy   TEWEN  =      -914.25413255
  -Hartree energ DENC   =       -59.64587502
  -exchange      EXHF   =         0.00000000
  -V(xc)+E(xc)   XCENC  =       -71.81278657
  PAW double counting   =       300.25769543     -160.43975915
  entropy T*S    EENTRO =         0.00000000
  eigenvalues    EBANDS =        24.66031739
  atomic energy  EATOM  =       824.49028925
  Solvation  Ediel_sol  =         0.00000000
  ---------------------------------------------------
  free energy    TOTEN  =       -43.28768312 eV

  energy without entropy =      -43.28768312  energy(sigma->0) =      -43.28768312


--------------------------------------------------------------------------------------------------------




----------------------------------------- Iteration    1(  11)  ---------------------------------------


    POTLOK:  cpu time    0.0130: real time    0.0065
    SETDIJ:  cpu time    0.0022: real time    0.0011
    EDDIAG:  cpu time    0.1933: real time    0.0966
  RMM-DIIS:  cpu time    0.6250: real time    0.3125
    ORTHCH:  cpu time    0.0238: real time    0.0119
 BZINTS: Fermi energy:  5.885264; 32.000000 electrons
         Band energy:  24.639506;  BLOECHL correction:  0.000000
       DOS:  cpu time    0.0055: real time    0.0028
    CHARGE:  cpu time    0.0396: real time    0.0198
    MIXING:  cpu time    0.0014: real time    0.0007
    --------------------------------------------
      LOOP:  cpu time    0.9080: real time    0.4556

 eigenvalue-minimisations  :  2623
 total energy-change (2. order) : 0.5752841E-05  (-0.6110958E-06)
 number of electron      32.0000059 magnetization 
 augmentation part       -1.8300692 magnetization 

 Broyden mixing:
  rms(total) = 0.12141E-03    rms(broyden)= 0.12127E-03
  rms(prec ) = 0.19804E-03
  weight for this iteration     100.00

 eigenvalues of (default mixing * dielectric matrix)
  average eigenvalue GAMMA=   2.0668
  3.3162  2.7261  2.2425  2.2425  0.9579  0.9158

 Free energy of the ion-electron system (eV)
  ---------------------------------------------------
  alpha Z        PSCENC =        13.45656811
  Ewald energy   TEWEN  =      -914.25413255
  -Hartree energ DENC   =       -59.62766886
  -exchange      EXHF   =         0.00000000
  -V(xc)+E(xc)   XCENC  =       -71.81376532
  PAW double counting   =       300.18357044     -160.36204414
  entropy T*S    EENTRO =         0.00000000
  eigenvalues    EBANDS =        24.63950570
  atomic energy  EATOM  =       824.49028925
  Solvation  Ediel_sol  =         0.00000000
  ---------------------------------------------------
  free energy    TOTEN  =       -43.28767736 eV

  energy without entropy =      -43.28767736  energy(sigma->0) =      -43.28767736


--------------------------------------------------------------------------------------------------------




----------------------------------------- Iteration    1(  12)  ---------------------------------------


    POTLOK:  cpu time    0.0134: real time    0.0067
    SETDIJ:  cpu time    0.0022: real time    0.0011
    EDDIAG:  cpu time    0.1966: real time    0.0986
  RMM-DIIS:  cpu time    0.5523: real time    0.2758
    ORTHCH:  cpu time    0.0227: real time    0.0113
 BZINTS: Fermi energy:  5.885220; 32.000000 electrons
         Band energy:  24.638694;  BLOECHL correction:  0.000000
       DOS:  cpu time    0.0059: real time    0.0029
    --------------------------------------------
      LOOP:  cpu time    0.7971: real time    0.4002

 eigenvalue-minimisations  :  1703
 total energy-change (2. order) : 0.4166376E-06  (-0.3425547E-07)
 number of electron      32.0000059 magnetization 
 augmentation part       -1.8300692 magnetization 

 Free energy of the ion-electron system (eV)
  ---------------------------------------------------
  alpha Z        PSCENC =        13.45656811
  Ewald energy   TEWEN  =      -914.25413255
  -Hartree energ DENC   =       -59.62699514
  -exchange      EXHF   =         0.00000000
  -V(xc)+E(xc)   XCENC  =       -71.81409339
  PAW double counting   =       300.17572872     -160.35373579
  entropy T*S    EENTRO =         0.00000000
  eigenvalues    EBANDS =        24.63869385
  atomic energy  EATOM  =       824.49028925
  Solvation  Ediel_sol  =         0.00000000
  ---------------------------------------------------
  free energy    TOTEN  =       -43.28767695 eV

  energy without entropy =      -43.28767695  energy(sigma->0) =      -43.28767695


--------------------------------------------------------------------------------------------------------




 average (electrostatic) potential at core
  the test charge radii are     0.9892
  (the norm of the test charge is              1.0000)
       1 -83.2480       2 -83.2480       3 -83.2480       4 -83.2480       5 -83.2480
       6 -83.2480       7 -83.2480       8 -83.2480
 
 
 
 E-fermi :   5.8852     XC(G=0):  -9.4116     alpha+bet :-11.9845


 k-point     1 :       0.0000    0.0000    0.0000
  band No.  band energies     occupation 
      1      -6.1307      2.00000
      2      -1.9841      2.00000
      3      -1.9841      2.00000
      4      -1.9841      2.00000
      5      -1.9841      2.00000
      6      -1.9841      2.00000
      7      -1.9841      2.00000
      8       2.9820      2.00000
      9       2.9820      2.00000
     10       2.9820      2.00000
     11       2.9820      2.00000
     12       2.9820      2.00000
     13       2.9820      2.00000
     14       5.8409      2.00000
     15       5.8409      2.00000
     16       5.8409      2.00000
     17       6.5595      0.00000
     18       6.5595      0.00000
     19       6.5595      0.00000
     20       6.5595      0.00000
     21       6.5595      0.00000
     22       6.5595      0.00000
     23       8.4091      0.00000
     24       8.4091      0.00000
     25       8.4091      0.00000
     26       9.2078      0.00000
     27      13.6281      0.00000
     28      13.6281      0.00000
     29      13.7928      0.00000
     30      15.9657      0.00000
     31      15.9657      0.00000
     32      15.9657      0.00000

 k-point     2 :       0.1250    0.0000    0.0000
  band No.  band energies     occupation 
      1      -6.0623      2.00000
      2      -2.9083      2.00000
      3      -1.9620      2.00000
      4      -1.9620      2.00000
      5      -1.9620      2.00000
      6      -1.9620      2.00000
      7      -0.9785      2.00000
      8       2.7950      2.00000
      9       2.7950      2.00000
     10       2.7950      2.00000
     11       2.7950      2.00000
     12       3.0437      2.00000
     13       3.0437      2.00000
     14       5.4212      2.00000
     15       5.5782      2.00000
     16       5.5782      2.00000
     17       6.4262      0.00000
     18       6.8772      0.00000
     19       6.9189      0.00000
     20       6.9189      0.00000
     21       6.9189      0.00000
     22       6.9189      0.00000
     23       8.2477      0.00000
     24       8.7576      0.00000
     25       8.7576      0.00000
     26       9.6089      0.00000
     27      13.1356      0.00000
     28      13.7041      0.00000
     29      14.0895      0.00000
     30      15.1045      0.00000
     31      15.2142      0.00000
     32      15.2658      0.00000

 k-point     3 :       0.2500    0.0000    0.0000
  band No.  band energies     occupation 
      1      -5.8576      2.00000
      2      -3.7349      2.00000
      3      -1.9062      2.00000
      4      -1.9062      2.00000
      5      -1.9062      2.00000
      6      -1.9062      2.00000
      7       0.0895      2.00000
      8       2.4172      2.00000
      9       2.4172      2.00000
     10       2.4172      2.00000
     11       2.4172      2.00000
     12       3.2276      2.00000
     13       3.2276      2.00000
     14       4.5063      2.00000
     15       5.0328      2.00000
     16       5.0328      2.00000
     17       6.4618      0.00000
     18       7.3912      0.00000
     19       7.8198      0.00000
     20       7.8198      0.00000
     21       7.8198      0.00000
     22       7.8198      0.00000
     23       7.8568      0.00000
     24       9.5536      0.00000
     25       9.5536      0.00000
     26      10.2423      0.00000
     27      12.3852      0.00000
     28      13.7080      0.00000
     29      13.7081      0.00000
     30      13.7086      0.00000
     31      13.7249      0.00000
     32      13.9046      0.00000

 k-point     4 :       0.3750    0.0000    0.0000
  band No.  band energies     occupation 
      1      -5.5187      2.00000
      2      -4.4516      2.00000
      3      -1.8461      2.00000
      4      -1.8461      2.00000
      5      -1.8461      2.00000
      6      -1.8461      2.00000
      7       1.1963      2.00000
      8       2.1011      2.00000
      9       2.1011      2.00000
     10       2.1011      2.00000
     11       2.1011      2.00000
     12       3.4354      2.00000
     13       3.5315      2.00000
     14       3.5315      2.00000
     15       4.4571      2.00000
     16       4.4571      2.00000
     17       6.6518      0.00000
     18       7.3958      0.00000
     19       8.1033      0.00000
     20       9.0239      0.00000
     21       9.0239      0.00000
     22       9.0239      0.00000
     23       9.0239      0.00000
     24       9.9153      0.00000
     25      10.5372      0.00000
     26      10.5372      0.00000
     27      12.0949      0.00000
     28      12.0949      0.00000
     29      12.0949      0.00000
     30      12.0949      0.00000
     31      12.7412      0.00000
     32      12.7510      0.00000

 k-point     5 :       0.5000    0.0000    0.0000
  band No.  band energies     occupation 
      1      -5.0483      2.00000
      2      -5.0483      2.00000
      3      -1.8202      2.00000
      4      -1.8202      2.00000
      5      -1.8202      2.00000
      6      -1.8202      2.00000
      7       1.9810      2.00000
      8       1.9810      2.00000
      9       1.9810      2.00000
     10       1.9810      2.00000
     11       2.3197      2.00000
     12       2.3197      2.00000
     13       3.9462      2.00000
     14       3.9462      2.00000
     15       3.9462      2.00000
     16       3.9462      2.00000
     17       6.9750      0.00000
     18       6.9750      0.00000
     19       8.9878      0.00000
     20       8.9878      0.00000
     21      10.1258      0.00000
     22      10.1258      0.00000
     23      10.1258      0.00000
     24      10.1258      0.00000
     25      10.8527      0.00000
     26      10.8527      0.00000
     27      10.8527      0.00000
     28      10.8527      0.00000
     29      11.6158      0.00000
     30      11.6158      0.00000
     31      11.6158      0.00000
     32      11.6158      0.00000

 k-point     6 :       0.1250    0.1250    0.0000
  band No.  band energies     occupation 
      1      -5.9942      2.00000
      2      -2.8686      2.00000
      3      -2.8686      2.00000
      4      -2.0537      2.00000
      5      -1.8363      2.00000
      6      -0.9847      2.00000
      7      -0.9847      2.00000
      8       2.3045      2.00000
      9       2.8210      2.00000
     10       2.8210      2.00000
     11       2.9082      2.00000
     12       2.9082      2.00000
     13       3.0908      2.00000
     14       4.7934      2.00000
     15       5.3136      2.00000
     16       5.7771      2.00000
     17       6.6842      0.00000
     18       6.8045      0.00000
     19       6.8045      0.00000
     20       7.2110      0.00000
     21       7.2110      0.00000
     22       7.6996      0.00000
     23       8.5499      0.00000
     24       8.6566      0.00000
     25       8.7037      0.00000
     26      10.1361      0.00000
     27      13.0166      0.00000
     28      13.4926      0.00000
     29      14.1665      0.00000
     30      14.1665      0.00000
     31      14.3603      0.00000
     32      14.9291      0.00000

 k-point     7 :       0.2500    0.1250    0.0000
  band No.  band energies     occupation 
      1      -5.7906      2.00000
      2      -3.6841      2.00000
      3      -2.7563      2.00000
      4      -2.1390      2.00000
      5      -1.6668      2.00000
      6      -1.0178      2.00000
      7       0.0362      2.00000
      8       1.8752      2.00000
      9       2.3630      2.00000
     10       2.6509      2.00000
     11       2.9814      2.00000
     12       3.0137      2.00000
     13       3.1649      2.00000
     14       3.9474      2.00000
     15       4.7646      2.00000
     16       5.4170      2.00000
     17       6.8535      0.00000
     18       7.1647      0.00000
     19       7.6945      0.00000
     20       7.7331      0.00000
     21       8.0706      0.00000
     22       8.2233      0.00000
     23       8.7992      0.00000
     24       9.1259      0.00000
     25       9.4261      0.00000
     26      10.7824      0.00000
     27      12.4742      0.00000
     28      12.6169      0.00000
     29      13.0655      0.00000
     30      13.5786      0.00000
     31      13.7328      0.00000
     32      13.9099      0.00000

 k-point     8 :       0.3750    0.1250    0.0000
  band No.  band energies     occupation 
      1      -5.4534      2.00000
      2      -4.3937      2.00000
      3      -2.5920      2.00000
      4      -2.2530      2.00000
      5      -1.4651      2.00000
      6      -1.1065      2.00000
      7       1.0672      2.00000
      8       1.6471      2.00000
      9       1.9353      2.00000
     10       2.4912      2.00000
     11       2.7451      2.00000
     12       3.0371      2.00000
     13       3.2699      2.00000
     14       3.5679      2.00000
     15       4.1876      2.00000
     16       4.7637      2.00000
     17       7.0485      0.00000
     18       7.7795      0.00000
     19       8.1717      0.00000
     20       8.3717      0.00000
     21       8.9562      0.00000
     22       9.2341      0.00000
     23       9.7918      0.00000
     24      10.0745      0.00000
     25      10.4350      0.00000
     26      10.4369      0.00000
     27      11.0642      0.00000
     28      12.0123      0.00000
     29      12.0240      0.00000
     30      12.2854      0.00000
     31      12.7045      0.00000
     32      13.0245      0.00000

 k-point     9 :       0.5000    0.1250    0.0000
  band No.  band energies     occupation 
      1      -4.9860      2.00000
      2      -4.9860      2.00000
      3      -2.4111      2.00000
      4      -2.4111      2.00000
      5      -1.2642      2.00000
      6      -1.2642      2.00000
      7       1.6727      2.00000
      8       1.6727      2.00000
      9       2.0752      2.00000
     10       2.0752      2.00000
     11       2.5291      2.00000
     12       2.5291      2.00000
     13       3.6775      2.00000
     14       3.6775      2.00000
     15       4.1112      2.00000
     16       4.1112      2.00000
     17       7.3679      0.00000
     18       7.3679      0.00000
     19       9.2136      0.00000
     20       9.2136      0.00000
     21       9.4343      0.00000
     22       9.4343      0.00000
     23      10.3045      0.00000
     24      10.3045      0.00000
     25      10.7801      0.00000
     26      10.7801      0.00000
     27      11.0143      0.00000
     28      11.0143      0.00000
     29      11.5445      0.00000
     30      11.5445      0.00000
     31      11.7228      0.00000
     32      11.7228      0.00000

 k-point    10 :       0.2500    0.2500    0.0000
  band No.  band energies     occupation 
      1      -5.5901      2.00000
      2      -3.5363      2.00000
      3      -3.5363      2.00000
      4      -2.3978      2.00000
      5      -1.3935      2.00000
      6      -0.1299      2.00000
      7      -0.1299      2.00000
      8       1.5319      2.00000
      9       2.4721      2.00000
     10       2.4721      2.00000
     11       3.0756      2.00000
     12       3.0756      2.00000
     13       3.1542      2.00000
     14       3.4093      2.00000
     15       4.2094      2.00000
     16       5.5481      2.00000
     17       7.0532      0.00000
     18       7.7958      0.00000
     19       7.7958      0.00000
     20       8.4990      0.00000
     21       8.4990      0.00000
     22       8.8896      0.00000
     23       8.9719      0.00000
     24       9.2107      0.00000
     25       9.9847      0.00000
     26      11.4011      0.00000
     27      11.6128      0.00000
     28      11.6128      0.00000
     29      12.2338      0.00000
     30      13.3254      0.00000
     31      13.8616      0.00000
     32      13.8780      0.00000

 k-point    11 :       0.3750    0.2500    0.0000
  band No.  band energies     occupation 
      1      -5.2588      2.00000
      2      -4.2231      2.00000
      3      -3.3039      2.00000
      4      -2.6965      2.00000
      5      -1.0787      2.00000
      6      -0.4009      2.00000
      7       0.7265      2.00000
      8       1.4443      2.00000
      9       1.9722      2.00000
     10       2.3489      2.00000
     11       2.7301      2.00000
     12       3.0979      2.00000
     13       3.4306      2.00000
     14       3.6281      2.00000
     15       3.6813      2.00000
     16       5.1191      2.00000
     17       7.6359      0.00000
     18       7.9899      0.00000
     19       8.6733      0.00000
     20       9.0216      0.00000
     21       9.1098      0.00000
     22       9.2073      0.00000
     23       9.5752      0.00000
     24      10.1804      0.00000
     25      10.1989      0.00000
     26      10.7065      0.00000
     27      10.8667      0.00000
     28      11.2275      0.00000
     29      12.0807      0.00000
     30      12.5969      0.00000
     31      12.5978      0.00000
     32      12.6707      0.00000

 k-point    12 :       0.5000    0.2500    0.0000
  band No.  band energies     occupation 
      1      -4.8008      2.00000
      2      -4.8008      2.00000
      3      -3.0119      2.00000
      4      -3.0119      2.00000
      5      -0.7353      2.00000
      6      -0.7353      2.00000
      7       1.5465      2.00000
      8       1.5465      2.00000
      9       1.6064      2.00000
     10       1.6064      2.00000
     11       3.1226      2.00000
     12       3.1226      2.00000
     13       3.2511      2.00000
     14       3.2511      2.00000
     15       4.4092      2.00000
     16       4.4092      2.00000
     17       8.2951      0.00000
     18       8.2951      0.00000
     19       8.7195      0.00000
     20       8.7195      0.00000
     21       9.7530      0.00000
     22       9.7530      0.00000
     23      10.0537      0.00000
     24      10.0537      0.00000
     25      10.3989      0.00000
     26      10.3989      0.00000
     27      11.0705      0.00000
     28      11.0705      0.00000
     29      11.3589      0.00000
     30      11.3589      0.00000
     31      12.8938      0.00000
     32      12.8938      0.00000

 k-point    13 :       0.3750    0.3750    0.0000
  band No.  band energies     occupation 
      1      -4.9380      2.00000
      2      -3.9476      2.00000
      3      -3.9476      2.00000
      4      -3.1530      2.00000
      5      -0.6610      2.00000
      6       0.2744      2.00000
      7       0.2744      2.00000
      8       1.4915      2.00000
      9       1.6368      2.00000
     10       2.1861      2.00000
     11       2.1861      2.00000
     12       3.0493      2.00000
     13       3.8541      2.00000
     14       3.8541      2.00000
     15       3.9044      2.00000
     16       5.1035      2.00000
     17       7.6262      0.00000
     18       8.8142      0.00000
     19       9.2018      0.00000
     20       9.2018      0.00000
     21       9.3781      0.00000
     22       9.3781      0.00000
     23       9.6689      0.00000
     24       9.9853      0.00000
     25      10.2069      0.00000
     26      10.2069      0.00000
     27      11.5495      0.00000
     28      11.8682      0.00000
     29      11.9699      0.00000
     30      12.0717      0.00000
     31      12.4322      0.00000
     32      12.4322      0.00000

 k-point    14 :       0.5000    0.3750    0.0000
  band No.  band energies     occupation 
      1      -4.4977      2.00000
      2      -4.4977      2.00000
      3      -3.5822      2.00000
      4      -3.5822      2.00000
      5      -0.2041      2.00000
      6      -0.2041      2.00000
      7       0.9459      2.00000
      8       0.9459      2.00000
      9       1.7539      2.00000
     10       1.7539      2.00000
     11       2.5538      2.00000
     12       2.5538      2.00000
     13       3.9950      2.00000
     14       3.9950      2.00000
     15       4.6078      2.00000
     16       4.6078      2.00000
     17       8.2734      0.00000
     18       8.2734      0.00000
     19       8.9109      0.00000
     20       8.9109      0.00000
     21       9.4713      0.00000
     22       9.4713      0.00000
     23      10.5606      0.00000
     24      10.5606      0.00000
     25      10.8885      0.00000
     26      10.8885      0.00000
     27      11.1090      0.00000
     28      11.1090      0.00000
     29      11.5338      0.00000
     30      11.5338      0.00000
     31      12.2431      0.00000
     32      12.2431      0.00000

 k-point    15 :       0.5000    0.5000    0.0000
  band No.  band energies     occupation 
      1      -4.0859      2.00000
      2      -4.0859      2.00000
      3      -4.0859      2.00000
      4      -4.0859      2.00000
      5       0.3545      2.00000
      6       0.3545      2.00000
      7       0.3545      2.00000
      8       0.3545      2.00000
      9       2.0816      2.00000
     10       2.0816      2.00000
     11       2.0816      2.00000
     12       2.0816      2.00000
     13       4.5083      2.00000
     14       4.5083      2.00000
     15       4.5083      2.00000
     16       4.5083      2.00000
     17       8.3014      0.00000
     18       8.3014      0.00000
     19       8.3014      0.00000
     20       8.3014      0.00000
     21      10.6394      0.00000
     22      10.6394      0.00000
     23      10.6394      0.00000
     24      10.6394      0.00000
     25      10.9987      0.00000
     26      10.9987      0.00000
     27      10.9987      0.00000
     28      10.9987      0.00000
     29      11.9967      0.00000
     30      11.9967      0.00000
     31      11.9967      0.00000
     32      11.9967      0.00000

 k-point    16 :       0.1250    0.1250    0.1250
  band No.  band energies     occupation 
      1      -5.9264      2.00000
      2      -2.8372      2.00000
      3      -2.8372      2.00000
      4      -2.8372      2.00000
      5      -0.9968      2.00000
      6      -0.9968      2.00000
      7      -0.9968      2.00000
      8       2.3982      2.00000
      9       2.3982      2.00000
     10       2.3982      2.00000
     11       3.1514      2.00000
     12       3.1514      2.00000
     13       3.1514      2.00000
     14       4.2408      2.00000
     15       5.5518      2.00000
     16       5.5518      2.00000
     17       6.7432      0.00000
     18       6.7432      0.00000
     19       6.7432      0.00000
     20       7.8170      0.00000
     21       7.8170      0.00000
     22       7.8170      0.00000
     23       8.3479      0.00000
     24       8.8354      0.00000
     25       8.8354      0.00000
     26      10.5559      0.00000
     27      13.1372      0.00000
     28      13.1372      0.00000
     29      14.1338      0.00000
     30      14.1361      0.00000
     31      14.1869      0.00000
     32      14.2194      0.00000

 k-point    17 :       0.2500    0.1250    0.1250
  band No.  band energies     occupation 
      1      -5.7240      2.00000
      2      -3.6371      2.00000
      3      -2.7549      2.00000
      4      -2.7549      2.00000
      5      -1.0373      2.00000
      6      -1.0373      2.00000
      7      -0.0397      2.00000
      8       1.9997      2.00000
      9       1.9997      2.00000
     10       2.6832      2.00000
     11       3.0897      2.00000
     12       3.0897      2.00000
     13       3.3315      2.00000
     14       3.4342      2.00000
     15       5.0579      2.00000
     16       5.2937      2.00000
     17       6.9173      0.00000
     18       7.2357      0.00000
     19       7.2357      0.00000
     20       8.1689      0.00000
     21       8.3415      0.00000
     22       8.8512      0.00000
     23       8.8927      0.00000
     24       8.8927      0.00000
     25       9.5007      0.00000
     26      11.1500      0.00000
     27      12.6141      0.00000
     28      12.6441      0.00000
     29      12.6441      0.00000
     30      13.0234      0.00000
     31      13.1063      0.00000
     32      13.4949      0.00000

 k-point    18 :       0.3750    0.1250    0.1250
  band No.  band energies     occupation 
      1      -5.3888      2.00000
      2      -4.3378      2.00000
      3      -2.6610      2.00000
      4      -2.6610      2.00000
      5      -1.0989      2.00000
      6      -1.0989      2.00000
      7       0.8945      2.00000
      8       1.7734      2.00000
      9       1.7734      2.00000
     10       2.6124      2.00000
     11       2.8747      2.00000
     12       2.8747      2.00000
     13       3.1646      2.00000
     14       3.6274      2.00000
     15       4.5189      2.00000
     16       4.5959      2.00000
     17       7.1980      0.00000
     18       7.9943      0.00000
     19       8.2384      0.00000
     20       8.2384      0.00000
     21       8.7484      0.00000
     22       9.5558      0.00000
     23      10.1367      0.00000
     24      10.1367      0.00000
     25      10.3224      0.00000
     26      10.6107      0.00000
     27      11.1318      0.00000
     28      11.1318      0.00000
     29      11.8580      0.00000
     30      12.1316      0.00000
     31      13.3014      0.00000
     32      13.3460      0.00000

 k-point    19 :       0.5000    0.1250    0.1250
  band No.  band energies     occupation 
      1      -4.9248      2.00000
      2      -4.9248      2.00000
      3      -2.6178      2.00000
      4      -2.6178      2.00000
      5      -1.1321      2.00000
      6      -1.1321      2.00000
      7       1.7093      2.00000
      8       1.7093      2.00000
      9       1.7756      2.00000
     10       1.7756      2.00000
     11       2.7679      2.00000
     12       2.7679      2.00000
     13       3.8269      2.00000
     14       3.8269      2.00000
     15       4.0288      2.00000
     16       4.0288      2.00000
     17       7.5700      0.00000
     18       7.5700      0.00000
     19       9.3932      0.00000
     20       9.3932      0.00000
     21       9.5067      0.00000
     22       9.5067      0.00000
     23       9.6748      0.00000
     24       9.6748      0.00000
     25      10.7664      0.00000
     26      10.7664      0.00000
     27      11.2061      0.00000
     28      11.2061      0.00000
     29      11.5071      0.00000
     30      11.5071      0.00000
     31      11.9428      0.00000
     32      11.9428      0.00000

 k-point    20 :       0.2500    0.2500    0.1250
  band No.  band energies     occupation 
      1      -5.5250      2.00000
      2      -3.5018      2.00000
      3      -3.5018      2.00000
      4      -2.7763      2.00000
      5      -1.0664      2.00000
      6      -0.2553      2.00000
      7      -0.2553      2.00000
      8       1.7347      2.00000
      9       2.3604      2.00000
     10       2.3604      2.00000
     11       2.6627      2.00000
     12       3.3252      2.00000
     13       3.3252      2.00000
     14       3.4649      2.00000
     15       4.6548      2.00000
     16       5.4130      2.00000
     17       7.1339      0.00000
     18       7.4435      0.00000
     19       7.4435      0.00000
     20       8.3376      0.00000
     21       9.0748      0.00000
     22       9.1772      0.00000
     23       9.1772      0.00000
     24       9.4384      0.00000
     25      10.0627      0.00000
     26      11.6322      0.00000
     27      11.6322      0.00000
     28      11.8164      0.00000
     29      12.4489      0.00000
     30      12.6688      0.00000
     31      12.7765      0.00000
     32      13.0605      0.00000

 k-point    21 :       0.3750    0.2500    0.1250
  band No.  band energies     occupation 
      1      -5.1963      2.00000
[...]
     15       5.0779      2.00000
     16       5.0779      2.00000
     17       7.3701      0.00000
     18       7.3701      0.00000
     19       7.3701      0.00000
     20       7.8768      0.00000
     21       9.3560      0.00000
     22       9.3560      0.00000
     23      10.3040      0.00000
     24      10.3040      0.00000
     25      10.3040      0.00000
     26      11.6019      0.00000
     27      11.6019      0.00000
     28      11.6019      0.00000
     29      11.7803      0.00000
     30      11.7803      0.00000
     31      11.7803      0.00000
     32      12.7668      0.00000

 k-point    27 :       0.3750    0.2500    0.2500
  band No.  band energies     occupation 
      1      -5.0111      2.00000
      2      -4.0315      2.00000
      3      -3.3075      2.00000
      4      -3.3075      2.00000
      5      -0.8353      2.00000
      6      -0.8353      2.00000
      7      -0.0208      2.00000
      8       1.1914      2.00000
      9       2.3458      2.00000
     10       2.3458      2.00000
     11       3.1071      2.00000
     12       3.7003      2.00000
     13       3.7003      2.00000
     14       3.8965      2.00000
     15       4.6606      2.00000
     16       4.7893      2.00000
     17       7.7275      0.00000
     18       7.9203      0.00000
     19       7.9203      0.00000
     20       8.0510      0.00000
     21       9.1377      0.00000
     22       9.7763      0.00000
     23      10.2310      0.00000
     24      10.2310      0.00000
     25      10.4529      0.00000
     26      10.7402      0.00000
     27      10.9905      0.00000
     28      11.6470      0.00000
     29      11.6470      0.00000
     30      11.7725      0.00000
     31      11.7725      0.00000
     32      12.1104      0.00000

 k-point    28 :       0.5000    0.2500    0.2500
  band No.  band energies     occupation 
      1      -4.5735      2.00000
      2      -4.5735      2.00000
      3      -3.2593      2.00000
      4      -3.2593      2.00000
      5      -0.9538      2.00000
      6      -0.9538      2.00000
      7       0.5497      2.00000
      8       0.5497      2.00000
      9       2.3847      2.00000
     10       2.3847      2.00000
     11       3.6762      2.00000
     12       3.6762      2.00000
     13       4.0031      2.00000
     14       4.0031      2.00000
     15       4.2502      2.00000
     16       4.2502      2.00000
     17       8.0969      0.00000
     18       8.0969      0.00000
     19       8.9165      0.00000
     20       8.9165      0.00000
     21       8.9841      0.00000
     22       8.9841      0.00000
     23       9.4941      0.00000
     24       9.4941      0.00000
     25      10.3234      0.00000
     26      10.3234      0.00000
     27      11.3295      0.00000
     28      11.3295      0.00000
     29      11.7711      0.00000
     30      11.7711      0.00000
     31      12.9886      0.00000
     32      12.9902      0.00000

 k-point    29 :       0.3750    0.3750    0.2500
  band No.  band energies     occupation 
      1      -4.7091      2.00000
      2      -3.8188      2.00000
      3      -3.8188      2.00000
      4      -3.3926      2.00000
      5      -0.9774      2.00000
      6      -0.5117      2.00000
      7      -0.5117      2.00000
      8       0.5178      2.00000
      9       2.6295      2.00000
     10       3.1107      2.00000
     11       3.1107      2.00000
     12       4.0604      2.00000
     13       4.0604      2.00000
     14       4.0766      2.00000
     15       4.3005      2.00000
     16       4.9436      2.00000
     17       7.8763      0.00000
     18       7.9372      0.00000
     19       8.2104      0.00000
     20       8.2104      0.00000
     21       9.3272      0.00000
     22       9.4639      0.00000
     23       9.4639      0.00000
     24       9.4878      0.00000
     25      10.2647      0.00000
     26      10.5822      0.00000
     27      10.7542      0.00000
     28      10.7542      0.00000
     29      12.0175      0.00000
     30      12.0175      0.00000
     31      12.9751      0.00000
     32      13.2037      0.00000

 k-point    30 :       0.5000    0.3750    0.2500
  band No.  band energies     occupation 
      1      -4.3033      2.00000
      2      -4.3033      2.00000
      3      -3.5812      2.00000
      4      -3.5812      2.00000
      5      -0.8605      2.00000
      6      -0.8605      2.00000
      7      -0.0568      2.00000
      8      -0.0568      2.00000
      9       2.9119      2.00000
     10       2.9119      2.00000
     11       3.7807      2.00000
     12       3.7807      2.00000
     13       4.1697      2.00000
     14       4.1697      2.00000
     15       4.5691      2.00000
     16       4.5691      2.00000
     17       8.2499      0.00000
     18       8.2499      0.00000
     19       8.3994      0.00000
     20       8.3994      0.00000
     21       9.1219      0.00000
     22       9.1219      0.00000
     23       9.2355      0.00000
     24       9.2355      0.00000
     25       9.9462      0.00000
     26       9.9462      0.00000
     27      10.6211      0.00000
     28      10.6211      0.00000
     29      12.5355      0.00000
     30      12.5355      0.00000
     31      13.4270      0.00000
     32      13.4270      0.00000

 k-point    31 :       0.5000    0.5000    0.2500
  band No.  band energies     occupation 
      1      -3.9563      2.00000
      2      -3.9563      2.00000
      3      -3.9563      2.00000
      4      -3.9563      2.00000
      5      -0.5448      2.00000
      6      -0.5448      2.00000
      7      -0.5448      2.00000
      8      -0.5448      2.00000
      9       3.3738      2.00000
     10       3.3738      2.00000
     11       3.3738      2.00000
     12       3.3738      2.00000
     13       4.5706      2.00000
     14       4.5706      2.00000
     15       4.5706      2.00000
     16       4.5706      2.00000
     17       8.2093      0.00000
     18       8.2093      0.00000
     19       8.2093      0.00000
     20       8.2093      0.00000
     21       9.4761      0.00000
     22       9.4761      0.00000
     23       9.4761      0.00000
     24       9.4761      0.00000
     25       9.7218      0.00000
     26       9.7218      0.00000
     27       9.7218      0.00000
     28       9.7218      0.00000
     29      13.7691      0.00000
     30      13.7709      0.00000
     31      13.7724      0.00000
     32      13.7755      0.00000

 k-point    32 :       0.3750    0.3750    0.3750
  band No.  band energies     occupation 
      1      -4.4367      2.00000
      2      -3.7117      2.00000
      3      -3.7117      2.00000
      4      -3.7117      2.00000
      5      -0.9156      2.00000
      6      -0.9156      2.00000
      7      -0.9156      2.00000
      8      -0.1142      2.00000
      9       3.5567      2.00000
     10       3.5567      2.00000
     11       3.5567      2.00000
     12       4.2739      2.00000
     13       4.2739      2.00000
     14       4.2739      2.00000
     15       4.7497      2.00000
     16       4.7497      2.00000
     17       7.5132      0.00000
     18       8.0437      0.00000
     19       8.0437      0.00000
     20       8.0437      0.00000
     21       9.3045      0.00000
     22       9.3045      0.00000
     23       9.3680      0.00000
     24       9.3680      0.00000
     25       9.3680      0.00000
     26       9.9593      0.00000
     27       9.9593      0.00000
     28       9.9593      0.00000
     29      13.2310      0.00000
     30      13.2310      0.00000
     31      13.2310      0.00000
     32      13.7237      0.00000

 k-point    33 :       0.5000    0.3750    0.3750
  band No.  band energies     occupation 
      1      -4.0876      2.00000
      2      -4.0876      2.00000
      3      -3.6618      2.00000
      4      -3.6618      2.00000
      5      -1.0700      2.00000
      6      -1.0700      2.00000
      7      -0.6092      2.00000
      8      -0.6092      2.00000
      9       3.7051      2.00000
     10       3.7051      2.00000
     11       4.3823      2.00000
     12       4.3823      2.00000
     13       4.3978      2.00000
     14       4.3978      2.00000
     15       4.5119      2.00000
     16       4.5119      2.00000
     17       7.7777      0.00000
     18       7.7777      0.00000
     19       8.1439      0.00000
     20       8.1439      0.00000
     21       9.0272      0.00000
     22       9.0272      0.00000
     23       9.1096      0.00000
     24       9.1096      0.00000
     25       9.5190      0.00000
     26       9.5190      0.00000
     27       9.8178      0.00000
     28       9.8178      0.00000
     29      13.5150      0.00000
     30      13.5150      0.00000
     31      13.9659      0.00000
     32      13.9660      0.00000

 k-point    34 :       0.5000    0.5000    0.3750
  band No.  band energies     occupation 
      1      -3.8483      2.00000
      2      -3.8483      2.00000
      3      -3.8483      2.00000
      4      -3.8483      2.00000
      5      -0.9751      2.00000
      6      -0.9751      2.00000
      7      -0.9751      2.00000
      8      -0.9751      2.00000
      9       4.2214      2.00000
     10       4.2214      2.00000
     11       4.2214      2.00000
     12       4.2214      2.00000
     13       4.6174      2.00000
     14       4.6174      2.00000
     15       4.6174      2.00000
     16       4.6174      2.00000
     17       7.7335      0.00000
     18       7.7335      0.00000
     19       7.7335      0.00000
     20       7.7335      0.00000
     21       9.2018      0.00000
     22       9.2018      0.00000
     23       9.2018      0.00000
     24       9.2018      0.00000
     25       9.3332      0.00000
     26       9.3332      0.00000
     27       9.3332      0.00000
     28       9.3332      0.00000
     29      13.7724      0.00000
     30      13.7724      0.00000
     31      13.7724      0.00000
     32      13.7724      0.00000

 k-point    35 :       0.5000    0.5000    0.5000
  band No.  band energies     occupation 
      1      -3.7979      2.00000
      2      -3.7979      2.00000
      3      -3.7979      2.00000
      4      -3.7979      2.00000
      5      -1.1372      2.00000
      6      -1.1372      2.00000
      7      -1.1372      2.00000
      8      -1.1372      2.00000
      9       4.6381      2.00000
     10       4.6381      2.00000
     11       4.6381      2.00000
     12       4.6381      2.00000
     13       4.6381      2.00000
     14       4.6381      2.00000
     15       4.6381      2.00000
     16       4.6381      2.00000
     17       7.3842      0.00000
     18       7.3842      0.00000
     19       7.3842      0.00000
     20       7.3842      0.00000
     21       9.1951      0.00000
     22       9.1951      0.00000
     23       9.1951      0.00000
     24       9.1951      0.00000
     25       9.1951      0.00000
     26       9.1951      0.00000
     27       9.1951      0.00000
     28       9.1951      0.00000
     29      13.5690      0.00000
     30      13.5690      0.00000
     31      13.5690      0.00000
     32      13.5690      0.00000


--------------------------------------------------------------------------------------------------------


 soft charge-density along one line, spin component           1
         0         1         2         3         4         5         6         7         8         9
 total charge-density along one line
 
 pseudopotential strength for first ion, spin component:           1
 18.415   0.000  -0.001   0.000  -0.000   0.000  -0.000   0.000  -0.000   0.000   0.000   0.000   0.000   0.000   0.000   0.000
 -0.001   0.000   0.006   0.000   0.000   0.000   0.000   0.000   0.000   0.000  -0.000   0.000  -0.000   0.000  -0.000   0.000
 -0.000   0.000   0.000   0.000   4.179   0.000   0.000   0.000  -0.000   0.000  -0.005   0.000  -0.000   0.000   0.000   0.000
 -0.000   0.000   0.000   0.000   0.000   0.000   4.179   0.000  -0.000   0.000  -0.000   0.000  -0.005   0.000   0.000   0.000
 -0.000   0.000   0.000   0.000  -0.000   0.000  -0.000   0.000   4.179   0.000   0.000   0.000   0.000   0.000  -0.005   0.000
  0.000   0.000  -0.000   0.000  -0.005   0.000  -0.000   0.000   0.000   0.000   0.005   0.000   0.000   0.000  -0.000   0.000
  0.000   0.000  -0.000   0.000  -0.000   0.000  -0.005   0.000   0.000   0.000   0.000   0.000   0.005   0.000  -0.000   0.000
  0.000   0.000  -0.000   0.000   0.000   0.000   0.000   0.000  -0.005   0.000  -0.000   0.000  -0.000   0.000   0.005   0.000
 total augmentation occupancy for first ion, spin component:           1
  1.491  -0.858  -0.000   0.000   0.000   0.000   0.000  -0.000
 -0.858   0.870  -0.000  -0.000   0.000   0.000  -0.000   0.000
 -0.000  -0.000   1.028   0.000   0.000  -0.661   0.000   0.000
  0.000  -0.000  -0.000   1.028   0.000  -0.000  -0.661  -0.000
  0.000  -0.000   0.000   0.000   1.028   0.000  -0.000  -0.661
  0.000   0.000  -0.661  -0.000   0.000   0.482  -0.000  -0.000
 -0.000   0.000   0.000  -0.661   0.000  -0.000   0.482   0.000
  0.000   0.000  -0.000  -0.000  -0.661  -0.000  -0.000   0.482


------------------------ aborting loop because EDIFF is reached ----------------------------------------


    CHARGE:  cpu time    0.0356: real time    0.0178
    FORLOC:  cpu time    0.0025: real time    0.0013
    FORNL :  cpu time    0.2494: real time    0.1247
    STRESS:  cpu time    0.8456: real time    0.4228
    FORCOR:  cpu time    0.0150: real time    0.0075
    FORHAR:  cpu time    0.0053: real time    0.0027
    MIXING:  cpu time    0.0012: real time    0.0006
    OFIELD:  cpu time    0.0000: real time    0.0000

  FORCE on cell =-STRESS in cart. coord.  units (eV):
  Direction    XX          YY          ZZ          XY          YZ          ZX
  --------------------------------------------------------------------------------------
  Alpha Z    13.45657    13.45657    13.45657
  Ewald    -304.75190  -304.75190  -304.75190    -0.00000    -0.00000    -0.00000
  Hartree    19.87685    19.87685    19.87685    -0.00000    -0.00000    -0.00000
  E(xc)    -101.55719  -101.55719  -101.55719    -0.00000    -0.00000    -0.00000
  Local    -117.37748  -117.37748  -117.37748    -0.00000    -0.00000    -0.00000
  n-local   311.95778   315.29939   308.76077    -2.68141    -2.24350    -1.30907
  augment   -46.47428   -46.47428   -46.47428     0.00000     0.00000     0.00000
  Kinetic   219.37546   231.04401   229.42675    -3.34398    -5.02654    -2.20499
  Fock        0.00000     0.00000     0.00000     0.00000     0.00000     0.00000
  -------------------------------------------------------------------------------------
  Total       1.79396     1.79396     1.79396     0.00000    -0.00000     0.00000
  in kB      17.95243    17.95243    17.95243     0.00000    -0.00000     0.00000
  external pressure =       17.95 kB  Pullay stress =        0.00 kB


 VOLUME and BASIS-vectors are now :
 -----------------------------------------------------------------------------
  energy-cutoff  :      245.34
  volume of cell :      160.10
      direct lattice vectors                 reciprocal lattice vectors
     5.430000000  0.000000000  0.000000000     0.184162063  0.000000000  0.000000000
     0.000000000  5.430000000  0.000000000     0.000000000  0.184162063  0.000000000
     0.000000000  0.000000000  5.430000000     0.000000000  0.000000000  0.184162063

  length of vectors
     5.430000000  5.430000000  5.430000000     0.184162063  0.184162063  0.184162063


 FORCES acting on ions
    electron-ion (+dipol)            ewald-force                    non-local-force                 convergence-correction
 -----------------------------------------------------------------------------------------------
   0.234E-14 -.509E-16 0.789E-15   -.355E-14 -.355E-14 0.000E+00   0.694E-17 -.434E-18 0.147E-16   -.116E-14 -.775E-15 -.205E-14
   0.221E-14 -.141E-13 -.119E-13   -.355E-14 -.355E-14 0.000E+00   0.954E-17 -.564E-17 -.867E-18   -.137E-14 0.181E-14 -.156E-14
   -.468E-14 -.152E-12 0.236E-14   -.355E-14 -.355E-14 0.000E+00   -.520E-17 0.134E-16 0.130E-16   0.222E-14 0.195E-14 -.182E-14
   -.867E-14 -.358E-15 -.149E-12   -.355E-14 -.355E-14 0.000E+00   -.147E-16 -.239E-16 0.867E-18   0.244E-14 -.695E-15 -.144E-14
   -.253E-13 0.940E-13 -.110E-12   0.336E-14 0.728E-14 0.376E-15   -.147E-16 0.173E-17 -.867E-18   0.136E-14 0.114E-15 -.144E-14
   -.870E-14 0.305E-15 -.541E-15   -.282E-15 0.729E-14 -.365E-15   -.113E-16 -.178E-16 -.156E-16   -.230E-14 0.386E-15 -.145E-14
   -.151E-13 -.339E-13 -.335E-13   -.372E-15 0.694E-14 0.295E-15   0.217E-16 0.321E-16 0.954E-17   -.233E-14 0.106E-14 -.111E-14
   -.268E-13 -.112E-12 0.952E-13   0.441E-14 0.695E-14 -.446E-15   -.781E-17 0.737E-17 -.208E-16   0.125E-14 0.855E-15 -.130E-14
 -----------------------------------------------------------------------------------------------
   -.847E-13 -.218E-12 -.207E-12   -.709E-14 0.143E-13 -.140E-15   -.156E-16 0.694E-17 0.000E+00   0.103E-15 0.471E-14 -.122E-13
 
 
 POSITION                                       TOTAL-FORCE (eV/Angst)
 -----------------------------------------------------------------------------------
      0.00000      0.00000      0.00000        -0.000000     -0.000000      0.000000
      0.00000      2.71500      2.71500         0.000000     -0.000000      0.000000
      2.71500      2.71500      0.00000        -0.000000      0.000000      0.000000
      2.71500      0.00000      2.71500         0.000000     -0.000000      0.000000
      4.07250      1.35750      4.07250        -0.000000      0.000000     -0.000000
      1.35750      1.35750      1.35750         0.000000     -0.000000     -0.000000
      1.35750      4.07250      4.07250        -0.000000      0.000000     -0.000000
      4.07250      4.07250      1.35750         0.000000      0.000000     -0.000000
 -----------------------------------------------------------------------------------
    total drift:                               -0.000000     -0.000000     -0.000000


--------------------------------------------------------------------------------------------------------



  FREE ENERGIE OF THE ION-ELECTRON SYSTEM (eV)
  ---------------------------------------------------
  free  energy   TOTEN  =       -43.28767695 eV

  energy  without entropy=      -43.28767695  energy(sigma->0) =      -43.28767695
 


--------------------------------------------------------------------------------------------------------


    POTLOK:  cpu time    0.0158: real time    0.0079


--------------------------------------------------------------------------------------------------------


     LOOP+:  cpu time   12.4928: real time    6.3132
    4ORBIT:  cpu time    0.0000: real time    0.0000
 BZINTS: Fermi energy:  5.885220; 32.000000 electrons
         Band energy:  24.638694;  BLOECHL correction:  0.000000

 total amount of memory used by VASP on root node    36631. kBytes
========================================================================

   base      :      30000. kBytes
   nonl-proj :       3372. kBytes
   fftplans  :        574. kBytes
   grid      :        995. kBytes
   one-center:         24. kBytes
   wavefun   :       1666. kBytes
 
  
  
 General timing and accounting informations for this job:
 ========================================================
  
                  Total CPU time used (sec):       13.063
                            User time (sec):       12.654
                          System time (sec):        0.408
                         Elapsed time (sec):        6.901
  
                   Maximum memory used (kb):       96288.
                   Average memory used (kb):           0.
  
                          Minor page faults:        19001
                          Major page faults:            0
                 Voluntary context switches:          596
