 vasp.5.4.1 05Feb16 (build Jun 14 2018 09:35:56) complex                        
  
 executed on           IFC91_ompi date 2022.04.18  16:38:34
 running on   16 total cores
 distrk:  each k-point on   16 cores,    1 groups
 distr:  one band on NCORES_PER_BAND=   1 cores,   16 groups


--------------------------------------------------------------------------------------------------------


 INCAR:
 POTCAR:   PAW_PBE Si 05Jan2001                   

 ----------------------------------------------------------------------------- 
|                                                                             |
|           W    W    AA    RRRRR   N    N  II  N    N   GGGG   !!!           |
|           W    W   A  A   R    R  NN   N  II  NN   N  G    G  !!!           |
|           W    W  A    A  R    R  N N  N  II  N N  N  G       !!!           |
|           W WW W  AAAAAA  RRRRR   N  N N  II  N  N N  G  GGG   !            |
|           WW  WW  A    A  R   R   N   NN  II  N   NN  G    G                |
|           W    W  A    A  R    R  N    N  II  N    N   GGGG   !!!           |
|                                                                             |
|      For optimal performance we recommend to set                            |
|        NCORE= 4 - approx SQRT( number of cores)                             |
|      NCORE specifies how many cores store one orbital (NPAR=cpu/NCORE).     |
|      This setting can  greatly improve the performance of VASP for DFT.     |
|      The default, NPAR=number of cores might be grossly inefficient         |
|      on modern multi-core architectures or massively parallel machines.     |
|      Do your own testing !!!!                                               |
|      Unfortunately you need to use the default for GW and RPA calculations. |
|      (for HF NCORE is supported but not extensively tested yet)             |
|                                                                             |
 ----------------------------------------------------------------------------- 

 POTCAR:   PAW_PBE Si 05Jan2001                   
   VRHFIN =Si: s2p2                                                             
   LEXCH  = PE                                                                  
   EATOM  =   103.0669 eV,    7.5752 Ry                                         
                                                                                
   TITEL  = PAW_PBE Si 05Jan2001                                                
   LULTRA =        F    use ultrasoft PP ?                                      
   IUNSCR =        1    unscreen: 0-lin 1-nonlin 2-no                           
   RPACOR =    1.500    partial core radius                                     
   POMASS =   28.085; ZVAL   =    4.000    mass and valenz                      
   RCORE  =    1.900    outmost cutoff radius                                   
   RWIGS  =    2.480; RWIGS  =    1.312    wigner-seitz radius (au A)           
   ENMAX  =  245.345; ENMIN  =  184.009 eV                                      
   ICORE  =        2    local potential                                         
   LCOR   =        T    correct aug charges                                     
   LPAW   =        T    paw PP                                                  
   EAUG   =  322.069                                                            
   DEXC   =    -.007                                                            
   RMAX   =    2.944    core radius for proj-oper                               
   RAUG   =    1.300    factor for augmentation sphere                          
   RDEP   =    1.993    radius for radial grids                                 
   QCUT   =   -4.246; QGAM   =    8.493    optimization parameters              
                                                                                
   Description                                                                  
     l     E      TYP  RCUT    TYP  RCUT                                        
     0   .000     23  1.900                                                     
     0   .000     23  1.900                                                     
     1   .000     23  1.900                                                     
     1   .000     23  1.900                                                     
     2   .000      7  1.900                                                     
  local pseudopotential read in
  partial core-charges read in
  atomic valenz-charges read in
  non local Contribution for L=           0  read in
    real space projection operators read in
  non local Contribution for L=           0  read in
    real space projection operators read in
  non local Contribution for L=           1  read in
    real space projection operators read in
  non local Contribution for L=           1  read in
    real space projection operators read in
    PAW grid and wavefunctions read in
 
   number of l-projection  operators is LMAX  =           4
   number of lm-projection operators is LMMAX =           8
 
 PAW_PBE Si 05Jan2001                   :
 energy of atom  1       EATOM= -103.0669
 kinetic energy error for atom=    0.0056 (will be added to EATOM!!)
 
 
 POSCAR: Si ! Bulk Si, Supercell                 
  positions in direct lattice
  No initial velocities read in
 exchange correlation table for  LEXCH =        8
   RHO(1)=    0.500       N(1)  =     2000
   RHO(2)=  100.500       N(2)  =     4000
 


--------------------------------------------------------------------------------------------------------


 ion  position               nearest neighbor table
   1  0.000  0.000  0.000-   5 2.35   6 2.35   7 2.35   8 2.35
   2  0.000  0.500  0.500-   5 2.35   6 2.35   7 2.35   8 2.35
   3  0.500  0.500  0.000-   5 2.35   6 2.35   7 2.35   8 2.35
   4  0.500  0.000  0.500-   5 2.35   6 2.35   7 2.35   8 2.35
   5  0.750  0.250  0.750-   1 2.35   2 2.35   3 2.35   4 2.35
   6  0.250  0.250  0.250-   1 2.35   2 2.35   3 2.35   4 2.35
   7  0.250  0.750  0.750-   1 2.35   2 2.35   3 2.35   4 2.35
   8  0.750  0.750  0.250-   1 2.35   2 2.35   3 2.35   4 2.35
 
  LATTYP: Found a simple cubic cell.
 ALAT       =     5.4300000000
  
  Lattice vectors:
  
 A1 = (   5.4300000000,   0.0000000000,   0.0000000000)
 A2 = (   0.0000000000,   5.4300000000,   0.0000000000)
 A3 = (   0.0000000000,   0.0000000000,   5.4300000000)


Analysis of symmetry for initial positions (statically):
=====================================================================
 Subroutine PRICEL returns following result:
 
  LATTYP: Found a face centered cubic cell.
 ALAT       =     5.4300000000
  
  Lattice vectors:
  
 A1 = (   2.7150000000,   2.7150000000,   0.0000000000)
 A2 = (   2.7150000000,   0.0000000000,  -2.7150000000)
 A3 = (   0.0000000000,   2.7150000000,  -2.7150000000)
 
   4 primitive cells build up your supercell.
 

 Routine SETGRP: Setting up the symmetry group for a 
 simple cubic supercell.


 Subroutine GETGRP returns: Found 48 space group operations
 (whereof 24 operations were pure point group operations)
 out of a pool of 48 trial point group operations.


The static configuration has the point symmetry T_d .
 The point group associated with its full space group is O_h .


Analysis of symmetry for dynamics (positions and initial velocities):
=====================================================================
 Subroutine PRICEL returns following result:
 
  LATTYP: Found a face centered cubic cell.
 ALAT       =     5.4300000000
  
  Lattice vectors:
  
 A1 = (   2.7150000000,   2.7150000000,   0.0000000000)
 A2 = (   2.7150000000,   0.0000000000,  -2.7150000000)
 A3 = (   0.0000000000,   2.7150000000,  -2.7150000000)
 
   4 primitive cells build up your supercell.
 

 Routine SETGRP: Setting up the symmetry group for a 
 simple cubic supercell.


 Subroutine GETGRP returns: Found 48 space group operations
 (whereof 24 operations were pure point group operations)
 out of a pool of 48 trial point group operations.


The dynamic configuration has the point symmetry T_d .
 The point group associated with its full space group is O_h .


 Subroutine INISYM returns: Found 48 space group operations
 (whereof 24 operations are pure point group operations),
 and found     4 'primitive' translations

 
 
 KPOINTS: Kpoints needed for unfolding on the path
  k-points in reciprocal lattice
Space group operators:
 irot       det(A)        alpha          n_x          n_y          n_z        tau_x        tau_y        tau_z
    1     1.000000     0.000001     1.000000     0.000000     0.000000     0.000000     0.000000     0.000000
    2     1.000000   120.000000    -0.577350    -0.577350    -0.577350     0.000000     0.000000     0.000000
    3     1.000000   120.000000     0.577350     0.577350     0.577350     0.000000     0.000000     0.000000
    4    -1.000000    90.000000     0.000000     0.000000    -1.000000     0.000000     0.000000     0.000000
    5    -1.000000   180.000000     0.000000     0.707107     0.707107     0.000000     0.000000     0.000000
    6    -1.000000    90.000000     0.000000     1.000000     0.000000     0.000000     0.000000     0.000000
    7     1.000000   180.000000     0.000000     0.000000     1.000000     0.000000     0.000000     0.000000
    8     1.000000   120.000000    -0.577350     0.577350     0.577350     0.000000     0.000000     0.000000
    9     1.000000   120.000000    -0.577350     0.577350    -0.577350     0.000000     0.000000     0.000000
   10    -1.000000    90.000000     0.000000     0.000000     1.000000     0.000000     0.000000     0.000000
   11    -1.000000    90.000000    -1.000000     0.000000     0.000000     0.000000     0.000000     0.000000
   12    -1.000000   180.000000     0.707107     0.000000     0.707107     0.000000     0.000000     0.000000
   13     1.000000   120.000000     0.577350    -0.577350     0.577350     0.000000     0.000000     0.000000
   14     1.000000   120.000000    -0.577350    -0.577350     0.577350     0.000000     0.000000     0.000000
   15     1.000000   180.000000     1.000000     0.000000     0.000000     0.000000     0.000000     0.000000
   16    -1.000000    90.000000     0.000000    -1.000000     0.000000     0.000000     0.000000     0.000000
   17    -1.000000   180.000000     0.707107     0.707107     0.000000     0.000000     0.000000     0.000000
   18    -1.000000    90.000000     1.000000     0.000000     0.000000     0.000000     0.000000     0.000000
   19     1.000000   120.000000     0.577350    -0.577350    -0.577350     0.000000     0.000000     0.000000
   20     1.000000   180.000000     0.000000     1.000000     0.000000     0.000000     0.000000     0.000000
   21     1.000000   120.000000     0.577350     0.577350    -0.577350     0.000000     0.000000     0.000000
   22    -1.000000   180.000000     0.000000    -0.707107     0.707107     0.000000     0.000000     0.000000
   23    -1.000000   180.000000     0.707107    -0.707107     0.000000     0.000000     0.000000     0.000000
   24    -1.000000   180.000000     0.707107     0.000000    -0.707107     0.000000     0.000000     0.000000
   25    -1.000000     0.000001     1.000000     0.000000     0.000000     0.750000     0.750000    -0.750000
   26    -1.000000   120.000000    -0.577350    -0.577350    -0.577350     0.750000     0.750000    -0.750000
   27    -1.000000   120.000000     0.577350     0.577350     0.577350     0.750000     0.750000    -0.750000
   28     1.000000    90.000000     0.000000     0.000000    -1.000000     0.750000     0.750000    -0.750000
   29     1.000000   180.000000     0.000000     0.707107     0.707107     0.750000     0.750000    -0.750000
   30     1.000000    90.000000     0.000000     1.000000     0.000000     0.750000     0.750000    -0.750000
   31    -1.000000   180.000000     0.000000     0.000000     1.000000     0.750000     0.750000    -0.750000
   32    -1.000000   120.000000    -0.577350     0.577350     0.577350     0.750000     0.750000    -0.750000
   33    -1.000000   120.000000    -0.577350     0.577350    -0.577350     0.750000     0.750000    -0.750000
   34     1.000000    90.000000     0.000000     0.000000     1.000000     0.750000     0.750000    -0.750000
   35     1.000000    90.000000    -1.000000     0.000000     0.000000     0.750000     0.750000    -0.750000
   36     1.000000   180.000000     0.707107     0.000000     0.707107     0.750000     0.750000    -0.750000
   37    -1.000000   120.000000     0.577350    -0.577350     0.577350     0.750000     0.750000    -0.750000
   38    -1.000000   120.000000    -0.577350    -0.577350     0.577350     0.750000     0.750000    -0.750000
   39    -1.000000   180.000000     1.000000     0.000000     0.000000     0.750000     0.750000    -0.750000
   40     1.000000    90.000000     0.000000    -1.000000     0.000000     0.750000     0.750000    -0.750000
   41     1.000000   180.000000     0.707107     0.707107     0.000000     0.750000     0.750000    -0.750000
   42     1.000000    90.000000     1.000000     0.000000     0.000000     0.750000     0.750000    -0.750000
   43    -1.000000   120.000000     0.577350    -0.577350    -0.577350     0.750000     0.750000    -0.750000
   44    -1.000000   180.000000     0.000000     1.000000     0.000000     0.750000     0.750000    -0.750000
   45    -1.000000   120.000000     0.577350     0.577350    -0.577350     0.750000     0.750000    -0.750000
   46     1.000000   180.000000     0.000000    -0.707107     0.707107     0.750000     0.750000    -0.750000
   47     1.000000   180.000000     0.707107    -0.707107     0.000000     0.750000     0.750000    -0.750000
   48     1.000000   180.000000     0.707107     0.000000    -0.707107     0.750000     0.750000    -0.750000


--------------------------------------------------------------------------------------------------------




 Dimension of arrays:
   k-points           NKPTS =     84   k-points in BZ     NKDIM =     84   number of bands    NBANDS=     48
   number of dos      NEDOS =    301   number of ions     NIONS =      8
   non local maximal  LDIM  =      4   non local SUM 2l+1 LMDIM =      8
   total plane-waves  NPLWV =  13824
   max r-space proj   IRMAX =      1   max aug-charges    IRDMAX=   3086
   dimension x,y,z NGX =    24 NGY =   24 NGZ =   24
   dimension x,y,z NGXF=    48 NGYF=   48 NGZF=   48
   support grid    NGXF=    48 NGYF=   48 NGZF=   48
   ions per type =               8
 NGX,Y,Z   is equivalent  to a cutoff of   7.35,  7.35,  7.35 a.u.
 NGXF,Y,Z  is equivalent  to a cutoff of  14.70, 14.70, 14.70 a.u.


 I would recommend the setting:
   dimension x,y,z NGX =    21 NGY =   21 NGZ =   21
 SYSTEM =  Graphene                                
 POSCAR =  Si ! Bulk Si, Supercell                 

 Startparameter for this run:
   NWRITE =      2    write-flag & timer
   PREC   = normal    normal or accurate (medium, high low for compatibility)
   ISTART =      0    job   : 0-new  1-cont  2-samecut
   ICHARG =     11    charge: 1-file 2-atom 10-const
   ISPIN  =      1    spin polarized calculation?
   LNONCOLLINEAR =      F non collinear calculations
   LSORBIT =      F    spin-orbit coupling
   INIWAV =      1    electr: 0-lowe 1-rand  2-diag
   LASPH  =      F    aspherical Exc in radial PAW
   METAGGA=      F    non-selfconsistent MetaGGA calc.

 Electronic Relaxation 1
   ENCUT  =  245.3 eV  18.03 Ry    4.25 a.u.   6.93  6.93  6.93*2*pi/ulx,y,z
   ENINI  =  245.3     initial cutoff
   ENAUG  =  322.1 eV  augmentation charge cutoff
   NELM   =     60;   NELMIN=  2; NELMDL= -5     # of ELM steps 
   EDIFF  = 0.1E-06   stopping-criterion for ELM
   LREAL  =      F    real-space projection
   NLSPLINE    = F    spline interpolate recip. space projectors
   LCOMPAT=      F    compatible to vasp.4.4
   GGA_COMPAT  = T    GGA compatible to vasp.4.4-vasp.4.6
   LMAXPAW     = -100 max onsite density
   LMAXMIX     =    2 max onsite mixed and CHGCAR
   VOSKOWN=      0    Vosko Wilk Nusair interpolation
   ROPT   =    0.00000
 Ionic relaxation
   EDIFFG = 0.1E-05   stopping-criterion for IOM
   NSW    =      0    number of steps for IOM
   NBLOCK =      1;   KBLOCK =      1    inner block; outer block 
   IBRION =     -1    ionic relax: 0-MD 1-quasi-New 2-CG
   NFREE  =      0    steps in history (QN), initial steepest desc. (CG)
   ISIF   =      2    stress and relaxation
   IWAVPR =     10    prediction:  0-non 1-charg 2-wave 3-comb
   ISYM   =      2    0-nonsym 1-usesym 2-fastsym
   LCORR  =      T    Harris-Foulkes like correction to forces

   POTIM  = 0.5000    time-step for ionic-motion
   TEIN   =    0.0    initial temperature
   TEBEG  =    0.0;   TEEND  =   0.0 temperature during run
   SMASS  =  -3.00    Nose mass-parameter (am)
   estimated Nose-frequenzy (Omega)   =  0.10E-29 period in steps =****** mass=  -0.674E-27a.u.
   SCALEE = 1.0000    scale energy and forces
   NPACO  =    256;   APACO  = 16.0  distance and # of slots for P.C.
   PSTRESS=    0.0 pullay stress

  Mass of Ions in am
   POMASS =  28.09
  Ionic Valenz
   ZVAL   =   4.00
  Atomic Wigner-Seitz radii
   RWIGS  =  -1.00
  virtual crystal weights 
   VCA    =   1.00
   NELECT =      32.0000    total number of electrons
   NUPDOWN=      -1.0000    fix difference up-down

 DOS related values:
   EMIN   =  10.00;   EMAX   =-10.00  energy-range for DOS
   EFERMI =   0.00
   ISMEAR =     0;   SIGMA  =   0.03  broadening in eV -4-tet -1-fermi 0-gaus

 Electronic relaxation 2 (details)
   IALGO  =     68    algorithm
   LDIAG  =      T    sub-space diagonalisation (order eigenvalues)
   LSUBROT=      F    optimize rotation matrix (better conditioning)
   TURBO    =      0    0=normal 1=particle mesh
   IRESTART =      0    0=no restart 2=restart with 2 vectors
   NREBOOT  =      0    no. of reboots
   NMIN     =      0    reboot dimension
   EREF     =   0.00    reference energy to select bands
   IMIX   =      4    mixing-type and parameters
     AMIX     =   0.40;   BMIX     =  1.00
     AMIX_MAG =   1.60;   BMIX_MAG =  1.00
     AMIN     =   0.10
     WC   =   100.;   INIMIX=   1;  MIXPRE=   1;  MAXMIX= -45

 Intra band minimization:
   WEIMIN = 0.0000     energy-eigenvalue tresh-hold
   EBREAK =  0.52E-09  absolut break condition
   DEPER  =   0.30     relativ break condition  

   TIME   =   0.40     timestep for ELM

  volume/ion in A,a.u.               =      20.01       135.05
  Fermi-wavevector in a.u.,A,eV,Ry     =   0.957176  1.808800 12.465458  0.916185
  Thomas-Fermi vector in A             =   2.086170
 
 Write flags
   LWAVE  =      T    write WAVECAR
   LCHARG =      F    write CHGCAR
   LVTOT  =      F    write LOCPOT, total local potential
   LVHAR  =      F    write LOCPOT, Hartree potential only
   LELF   =      F    write electronic localiz. function (ELF)
   LORBIT =      0    0 simple, 1 ext, 2 COOP (PROOUT)


 Dipole corrections
   LMONO  =      F    monopole corrections only (constant potential shift)
   LDIPOL =      F    correct potential (dipole corrections)
   IDIPOL =      0    1-x, 2-y, 3-z, 4-all directions 
   EPSILON=  1.0000000 bulk dielectric constant

 Exchange correlation treatment:
   GGA     =    --    GGA type
   LEXCH   =     8    internal setting for exchange type
   VOSKOWN=      0    Vosko Wilk Nusair interpolation
   LHFCALC =     F    Hartree Fock is set to
   LHFONE  =     F    Hartree Fock one center treatment
   AEXX    =    0.0000 exact exchange contribution

 Linear response parameters
   LEPSILON=     F    determine dielectric tensor
   LRPA    =     F    only Hartree local field effects (RPA)
   LNABLA  =     F    use nabla operator in PAW spheres
   LVEL    =     F    velocity operator in full k-point grid
   LINTERFAST=   F  fast interpolation
   KINTER  =     0    interpolate to denser k-point grid
   CSHIFT  =0.1000    complex shift for real part using Kramers Kronig
   OMEGAMAX=  -1.0    maximum frequency
   DEG_THRESHOLD= 0.2000000E-02 threshold for treating states as degnerate
   RTIME   =    0.100 relaxation time in fs

 Orbital magnetization related:
   ORBITALMAG=     F  switch on orbital magnetization
   LCHIMAG   =     F  perturbation theory with respect to B field
   DQ        =  0.001000  dq finite difference perturbation B field



--------------------------------------------------------------------------------------------------------


 Static calculation
 charge density and potential remain constant during run
 non-spin polarized calculation
 RMM-DIIS sequential band-by-band and
  variant of blocked Davidson during initial phase
 perform sub-space diagonalisation
    before iterative eigenvector-optimisation
 no mixing
 using additional bands           32
 reciprocal scheme for non local part
 use partial core corrections
 calculate Harris-corrections to forces 
   (improved forces if not selfconsistent)
 use gradient corrections 
 WARNING: stress and forces are not correct
  (second derivative of E(xc) not defined)
 use of overlap-Matrix (Vanderbilt PP)
 Gauss-broadening in eV      SIGMA  =   0.03


--------------------------------------------------------------------------------------------------------


  energy-cutoff  :      245.34
  volume of cell :      160.10
      direct lattice vectors                 reciprocal lattice vectors
     5.430000000  0.000000000  0.000000000     0.184162063  0.000000000  0.000000000
     0.000000000  5.430000000  0.000000000     0.000000000  0.184162063  0.000000000
     0.000000000  0.000000000  5.430000000     0.000000000  0.000000000  0.184162063

  length of vectors
     5.430000000  5.430000000  5.430000000     0.184162063  0.184162063  0.184162063


 
 k-points in units of 2pi/SCALE and weight: Kpoints needed for unfolding on the path
   0.00000000  0.00000000  0.00000000       0.012
   0.00000000  0.03846154  0.00000000       0.012
   0.00000000  0.07692308  0.00000000       0.012
   0.00000000  0.11538462  0.00000000       0.012
   0.00000000  0.15384615  0.00000000       0.012
   0.00000000  0.19230769  0.00000000       0.012
   0.00000000  0.23076923  0.00000000       0.012
   0.00000000  0.26923077  0.00000000       0.012
   0.00000000  0.30769231  0.00000000       0.012
   0.00000000  0.34615385  0.00000000       0.012
   0.00000000  0.38461538  0.00000000       0.012
   0.00000000  0.42307692  0.00000000       0.012
   0.00000000  0.46153846  0.00000000       0.012
   0.00000000  0.50000000  0.00000000       0.012
   0.00000000  0.53846154  0.00000000       0.012
   0.00000000  0.57692308  0.00000000       0.012
   0.00000000  0.61538462  0.00000000       0.012
   0.00000000  0.65384615  0.00000000       0.012
   0.00000000  0.69230769  0.00000000       0.012
   0.00000000  0.73076923  0.00000000       0.012
   0.00000000  0.76923077  0.00000000       0.012
   0.00000000  0.80769231  0.00000000       0.012
   0.00000000  0.84615385  0.00000000       0.012
   0.00000000  0.88461538  0.00000000       0.012
   0.00000000  0.92307692  0.00000000       0.012
   0.00000000  0.96153846  0.00000000       0.012
   0.02272727  0.02272727  0.02272727       0.012
   0.02678571  0.02678571  0.00000000       0.012
   0.03125000  0.00000000  0.03125000       0.012
   0.04545455  0.04545455  0.04545455       0.012
   0.05357143  0.05357143  0.00000000       0.012
   0.06250000  0.00000000  0.06250000       0.012
   0.06818182  0.06818182  0.06818182       0.012
   0.08035714  0.08035714  0.00000000       0.012
   0.09090909  0.09090909  0.09090909       0.012
   0.09375000  0.00000000  0.09375000       0.012
   0.10714286  0.10714286  0.00000000       0.012
   0.11363636  0.11363636  0.11363636       0.012
   0.12500000  0.00000000  0.12500000       0.012
   0.13392857  0.13392857  0.00000000       0.012
   0.13636364  0.13636364  0.13636364       0.012
   0.15625000  0.00000000  0.15625000       0.012
   0.15909091  0.15909091  0.15909091       0.012
   0.16071429  0.16071429  0.00000000       0.012
   0.18181818  0.18181818  0.18181818       0.012
   0.18750000  0.00000000  0.18750000       0.012
   0.18750000  0.18750000  0.00000000       0.012
   0.20454545  0.20454545  0.20454545       0.012
   0.21428571  0.21428571  0.00000000       0.012
   0.21875000  0.00000000  0.21875000       0.012
   0.22727273  0.22727273  0.22727273       0.012
   0.24107143  0.24107143  0.00000000       0.012
   0.25000000  0.00000000  0.25000000       0.012
   0.25000000  0.25000000  0.25000000       0.012
   0.26785714  0.26785714  0.00000000       0.012
   0.27272727  0.27272727  0.27272727       0.012
   0.29464286  0.29464286  0.00000000       0.012
   0.29545455  0.29545455  0.29545455       0.012
   0.31818182  0.31818182  0.31818182       0.012
   0.32142857  0.32142857  0.00000000       0.012
   0.34090909  0.34090909  0.34090909       0.012
   0.34821429  0.34821429  0.00000000       0.012
   0.36363636  0.36363636  0.36363636       0.012
   0.37500000  0.37500000  0.00000000       0.012
   0.38636364  0.38636364  0.38636364       0.012
   0.40178571  0.40178571  0.00000000       0.012
   0.40909091  0.40909091  0.40909091       0.012
   0.42857143  0.42857143  0.00000000       0.012
   0.43181818  0.43181818  0.43181818       0.012
   0.45454545  0.45454545  0.45454545       0.012
   0.45535714  0.45535714  0.00000000       0.012
   0.47727273  0.47727273  0.47727273       0.012
   0.48214286  0.48214286  0.00000000       0.012
   0.50000000  0.50000000  0.50000000       0.012
   0.50892857  0.50892857  0.00000000       0.012
   0.53571429  0.53571429  0.00000000       0.012
   0.56250000  0.56250000  0.00000000       0.012
   0.58928571  0.58928571  0.00000000       0.012
   0.61607143  0.61607143  0.00000000       0.012
   0.64285714  0.64285714  0.00000000       0.012
   0.66964286  0.66964286  0.00000000       0.012
   0.69642857  0.69642857  0.00000000       0.012
   0.72321429  0.72321429  0.00000000       0.012
   0.75000000  0.75000000  0.00000000       0.012
 
 k-points in reciprocal lattice and weights: Kpoints needed for unfolding on the path
   0.00000000  0.00000000  0.00000000       0.012
   0.00000000  0.03846154  0.00000000       0.012
   0.00000000  0.07692308  0.00000000       0.012
   0.00000000  0.11538462  0.00000000       0.012
   0.00000000  0.15384615  0.00000000       0.012
   0.00000000  0.19230769  0.00000000       0.012
   0.00000000  0.23076923  0.00000000       0.012
   0.00000000  0.26923077  0.00000000       0.012
   0.00000000  0.30769231  0.00000000       0.012
   0.00000000  0.34615385  0.00000000       0.012
   0.00000000  0.38461538  0.00000000       0.012
   0.00000000  0.42307692  0.00000000       0.012
   0.00000000  0.46153846  0.00000000       0.012
   0.00000000  0.50000000  0.00000000       0.012
   0.00000000  0.53846154  0.00000000       0.012
   0.00000000  0.57692308  0.00000000       0.012
   0.00000000  0.61538462  0.00000000       0.012
   0.00000000  0.65384615  0.00000000       0.012
   0.00000000  0.69230769  0.00000000       0.012
   0.00000000  0.73076923  0.00000000       0.012
   0.00000000  0.76923077  0.00000000       0.012
   0.00000000  0.80769231  0.00000000       0.012
   0.00000000  0.84615385  0.00000000       0.012
   0.00000000  0.88461538  0.00000000       0.012
   0.00000000  0.92307692  0.00000000       0.012
   0.00000000  0.96153846  0.00000000       0.012
   0.02272727  0.02272727  0.02272727       0.012
   0.02678571  0.02678571  0.00000000       0.012
   0.03125000  0.00000000  0.03125000       0.012
   0.04545455  0.04545455  0.04545455       0.012
   0.05357143  0.05357143  0.00000000       0.012
   0.06250000  0.00000000  0.06250000       0.012
   0.06818182  0.06818182  0.06818182       0.012
   0.08035714  0.08035714  0.00000000       0.012
   0.09090909  0.09090909  0.09090909       0.012
   0.09375000  0.00000000  0.09375000       0.012
   0.10714286  0.10714286  0.00000000       0.012
   0.11363636  0.11363636  0.11363636       0.012
   0.12500000  0.00000000  0.12500000       0.012
   0.13392857  0.13392857  0.00000000       0.012
   0.13636364  0.13636364  0.13636364       0.012
   0.15625000  0.00000000  0.15625000       0.012
   0.15909091  0.15909091  0.15909091       0.012
   0.16071429  0.16071429  0.00000000       0.012
   0.18181818  0.18181818  0.18181818       0.012
   0.18750000  0.00000000  0.18750000       0.012
   0.18750000  0.18750000  0.00000000       0.012
   0.20454545  0.20454545  0.20454545       0.012
   0.21428571  0.21428571  0.00000000       0.012
   0.21875000  0.00000000  0.21875000       0.012
   0.22727273  0.22727273  0.22727273       0.012
   0.24107143  0.24107143  0.00000000       0.012
   0.25000000  0.00000000  0.25000000       0.012
   0.25000000  0.25000000  0.25000000       0.012
   0.26785714  0.26785714  0.00000000       0.012
   0.27272727  0.27272727  0.27272727       0.012
   0.29464286  0.29464286  0.00000000       0.012
   0.29545455  0.29545455  0.29545455       0.012
   0.31818182  0.31818182  0.31818182       0.012
   0.32142857  0.32142857  0.00000000       0.012
   0.34090909  0.34090909  0.34090909       0.012
   0.34821429  0.34821429  0.00000000       0.012
   0.36363636  0.36363636  0.36363636       0.012
   0.37500000  0.37500000  0.00000000       0.012
   0.38636364  0.38636364  0.38636364       0.012
   0.40178571  0.40178571  0.00000000       0.012
   0.40909091  0.40909091  0.40909091       0.012
   0.42857143  0.42857143  0.00000000       0.012
   0.43181818  0.43181818  0.43181818       0.012
   0.45454545  0.45454545  0.45454545       0.012
   0.45535714  0.45535714  0.00000000       0.012
   0.47727273  0.47727273  0.47727273       0.012
   0.48214286  0.48214286  0.00000000       0.012
   0.50000000  0.50000000  0.50000000       0.012
   0.50892857  0.50892857  0.00000000       0.012
   0.53571429  0.53571429  0.00000000       0.012
   0.56250000  0.56250000  0.00000000       0.012
   0.58928571  0.58928571  0.00000000       0.012
   0.61607143  0.61607143  0.00000000       0.012
   0.64285714  0.64285714  0.00000000       0.012
   0.66964286  0.66964286  0.00000000       0.012
   0.69642857  0.69642857  0.00000000       0.012
   0.72321429  0.72321429  0.00000000       0.012
   0.75000000  0.75000000  0.00000000       0.012
 
 position of ions in fractional coordinates (direct lattice) 
   0.00000000  0.00000000  0.00000000
   0.00000000  0.50000000  0.50000000
   0.50000000  0.50000000  0.00000000
   0.50000000  0.00000000  0.50000000
   0.75000000  0.25000000  0.75000000
   0.25000000  0.25000000  0.25000000
   0.25000000  0.75000000  0.75000000
   0.75000000  0.75000000  0.25000000
 
 position of ions in cartesian coordinates  (Angst):
   0.00000000  0.00000000  0.00000000
   0.00000000  2.71500000  2.71500000
   2.71500000  2.71500000  0.00000000
   2.71500000  0.00000000  2.71500000
   4.07250000  1.35750000  4.07250000
   1.35750000  1.35750000  1.35750000
   1.35750000  4.07250000  4.07250000
   4.07250000  4.07250000  1.35750000
 


--------------------------------------------------------------------------------------------------------


 k-point  1 :   0.0000 0.0000 0.0000  plane waves:    1365
 k-point  2 :   0.0000 0.0385 0.0000  plane waves:    1361
 k-point  3 :   0.0000 0.0769 0.0000  plane waves:    1370
 k-point  4 :   0.0000 0.1154 0.0000  plane waves:    1370
 k-point  5 :   0.0000 0.1538 0.0000  plane waves:    1374
 k-point  6 :   0.0000 0.1923 0.0000  plane waves:    1374
 k-point  7 :   0.0000 0.2308 0.0000  plane waves:    1390
 k-point  8 :   0.0000 0.2692 0.0000  plane waves:    1402
 k-point  9 :   0.0000 0.3077 0.0000  plane waves:    1402
 k-point 10 :   0.0000 0.3462 0.0000  plane waves:    1402
 k-point 11 :   0.0000 0.3846 0.0000  plane waves:    1398
 k-point 12 :   0.0000 0.4231 0.0000  plane waves:    1398
 k-point 13 :   0.0000 0.4615 0.0000  plane waves:    1414
 k-point 14 :   0.0000 0.5000 0.0000  plane waves:    1406
 k-point 15 :   0.0000 0.5385 0.0000  plane waves:    1414
 k-point 16 :   0.0000 0.5769 0.0000  plane waves:    1398
 k-point 17 :   0.0000 0.6154 0.0000  plane waves:    1398
 k-point 18 :   0.0000 0.6538 0.0000  plane waves:    1402
 k-point 19 :   0.0000 0.6923 0.0000  plane waves:    1402
 k-point 20 :   0.0000 0.7308 0.0000  plane waves:    1402
 k-point 21 :   0.0000 0.7692 0.0000  plane waves:    1390
 k-point 22 :   0.0000 0.8077 0.0000  plane waves:    1374
 k-point 23 :   0.0000 0.8462 0.0000  plane waves:    1374
 k-point 24 :   0.0000 0.8846 0.0000  plane waves:    1370
 k-point 25 :   0.0000 0.9231 0.0000  plane waves:    1370
 k-point 26 :   0.0000 0.9615 0.0000  plane waves:    1361
 k-point 27 :   0.0227 0.0227 0.0227  plane waves:    1361
 k-point 28 :   0.0268 0.0268 0.0000  plane waves:    1363
 k-point 29 :   0.0312 0.0000 0.0312  plane waves:    1363
 k-point 30 :   0.0455 0.0455 0.0455  plane waves:    1367
 k-point 31 :   0.0536 0.0536 0.0000  plane waves:    1367
 k-point 32 :   0.0625 0.0000 0.0625  plane waves:    1371
 k-point 33 :   0.0682 0.0682 0.0682  plane waves:    1376
 k-point 34 :   0.0804 0.0804 0.0000  plane waves:    1373
 k-point 35 :   0.0909 0.0909 0.0909  plane waves:    1382
 k-point 36 :   0.0938 0.0000 0.0938  plane waves:    1377
 k-point 37 :   0.1071 0.1071 0.0000  plane waves:    1378
 k-point 38 :   0.1136 0.1136 0.1136  plane waves:    1385
 k-point 39 :   0.1250 0.0000 0.1250  plane waves:    1388
 k-point 40 :   0.1339 0.1339 0.0000  plane waves:    1388
 k-point 41 :   0.1364 0.1364 0.1364  plane waves:    1388
 k-point 42 :   0.1562 0.0000 0.1562  plane waves:    1394
 k-point 43 :   0.1591 0.1591 0.1591  plane waves:    1382
 k-point 44 :   0.1607 0.1607 0.0000  plane waves:    1398
 k-point 45 :   0.1818 0.1818 0.1818  plane waves:    1394
 k-point 46 :   0.1875 0.0000 0.1875  plane waves:    1398
 k-point 47 :   0.1875 0.1875 0.0000  plane waves:    1398
 k-point 48 :   0.2045 0.2045 0.2045  plane waves:    1397
 k-point 49 :   0.2143 0.2143 0.0000  plane waves:    1400
 k-point 50 :   0.2188 0.0000 0.2188  plane waves:    1392
 k-point 51 :   0.2273 0.2273 0.2273  plane waves:    1394
 k-point 52 :   0.2411 0.2411 0.0000  plane waves:    1392
 k-point 53 :   0.2500 0.0000 0.2500  plane waves:    1376
 k-point 54 :   0.2500 0.2500 0.2500  plane waves:    1394
 k-point 55 :   0.2679 0.2679 0.0000  plane waves:    1388
 k-point 56 :   0.2727 0.2727 0.2727  plane waves:    1406
 k-point 57 :   0.2946 0.2946 0.0000  plane waves:    1390
 k-point 58 :   0.2955 0.2955 0.2955  plane waves:    1412
 k-point 59 :   0.3182 0.3182 0.3182  plane waves:    1409
 k-point 60 :   0.3214 0.3214 0.0000  plane waves:    1384
 k-point 61 :   0.3409 0.3409 0.3409  plane waves:    1412
 k-point 62 :   0.3482 0.3482 0.0000  plane waves:    1392
 k-point 63 :   0.3636 0.3636 0.3636  plane waves:    1415
 k-point 64 :   0.3750 0.3750 0.0000  plane waves:    1400
 k-point 65 :   0.3864 0.3864 0.3864  plane waves:    1403
 k-point 66 :   0.4018 0.4018 0.0000  plane waves:    1400
 k-point 67 :   0.4091 0.4091 0.4091  plane waves:    1406
 k-point 68 :   0.4286 0.4286 0.0000  plane waves:    1402
 k-point 69 :   0.4318 0.4318 0.4318  plane waves:    1397
 k-point 70 :   0.4545 0.4545 0.4545  plane waves:    1394
 k-point 71 :   0.4554 0.4554 0.0000  plane waves:    1392
 k-point 72 :   0.4773 0.4773 0.4773  plane waves:    1376
 k-point 73 :   0.4821 0.4821 0.0000  plane waves:    1372
 k-point 74 :   0.5000 0.5000 0.5000  plane waves:    1376
 k-point 75 :   0.5089 0.5089 0.0000  plane waves:    1372
 k-point 76 :   0.5357 0.5357 0.0000  plane waves:    1386
 k-point 77 :   0.5625 0.5625 0.0000  plane waves:    1398
 k-point 78 :   0.5893 0.5893 0.0000  plane waves:    1404
 k-point 79 :   0.6161 0.6161 0.0000  plane waves:    1398
 k-point 80 :   0.6429 0.6429 0.0000  plane waves:    1392
 k-point 81 :   0.6696 0.6696 0.0000  plane waves:    1380
 k-point 82 :   0.6964 0.6964 0.0000  plane waves:    1390
 k-point 83 :   0.7232 0.7232 0.0000  plane waves:    1388
 k-point 84 :   0.7500 0.7500 0.0000  plane waves:    1376

 maximum and minimum number of plane-waves per node :      1415     1361

 maximum number of plane-waves:      1415
 maximum index in each direction: 
   IXMAX=    6   IYMAX=    6   IZMAX=    6
   IXMIN=   -7   IYMIN=   -7   IZMIN=   -7

 WARNING: aliasing errors must be expected set NGX to  28 to avoid them
 WARNING: aliasing errors must be expected set NGY to  28 to avoid them
 WARNING: aliasing errors must be expected set NGZ to  28 to avoid them
 aliasing errors are usually negligible using standard VASP settings
 and one can safely disregard these warnings

 serial   3D FFT for wavefunctions
 parallel 3D FFT for charge:
    minimum data exchange during FFTs selected (reduces bandwidth)


 total amount of memory used by VASP on root node    45429. kBytes
========================================================================

   base      :      30000. kBytes
   nonl-proj :       7837. kBytes
   fftplans  :        574. kBytes
   grid      :        995. kBytes
   one-center:         24. kBytes
   wavefun   :       5999. kBytes
 
     INWAV:  cpu time    0.0000: real time    0.0000
 initial charge density was supplied:
 number of electron      32.0000059 magnetization 
 keeping initial charge density in first step


--------------------------------------------------------------------------------------------------------


 Maximum index for augmentation-charges          241 (set IRDMAX)


--------------------------------------------------------------------------------------------------------


 First call to EWALD:  gamma=   0.326
 Maximum number of real-space cells 3x 3x 3
 Maximum number of reciprocal cells 3x 3x 3

 FEWALD executed in parallel
    FEWALD:  cpu time    0.0025: real time    0.0013


----------------------------------------- Iteration    1(   1)  ---------------------------------------


    POTLOK:  cpu time    0.0214: real time    0.0107
    SETDIJ:  cpu time    0.0026: real time    0.0013
     EDDAV:  cpu time    2.4291: real time    1.2146
       DOS:  cpu time    0.0020: real time    0.0010
    --------------------------------------------
      LOOP:  cpu time    2.4597: real time    1.2308

 eigenvalue-minimisations  :  8064
 total energy-change (2. order) : 0.1641163E+02  (-0.6709323E+03)
 number of electron      32.0000059 magnetization 
 augmentation part       32.0000059 magnetization 

 Free energy of the ion-electron system (eV)
  ---------------------------------------------------
  alpha Z        PSCENC =        13.45656811
  Ewald energy   TEWEN  =      -914.25413255
  -Hartree energ DENC   =       -59.62985939
  -exchange      EXHF   =         0.00000000
  -V(xc)+E(xc)   XCENC  =       -71.81379622
  PAW double counting   =       300.18722646     -160.36557401
  entropy T*S    EENTRO =        -0.00112377
  eigenvalues    EBANDS =        84.34203459
  atomic energy  EATOM  =       824.49028925
  Solvation  Ediel_sol  =         0.00000000
  ---------------------------------------------------
  free energy    TOTEN  =        16.41163247 eV

  energy without entropy =       16.41275624  energy(sigma->0) =       16.41219435


--------------------------------------------------------------------------------------------------------




----------------------------------------- Iteration    1(   2)  ---------------------------------------


     EDDAV:  cpu time    3.1994: real time    1.5998
       DOS:  cpu time    0.0009: real time    0.0004
    --------------------------------------------
      LOOP:  cpu time    3.2043: real time    1.6038

 eigenvalue-minimisations  : 10960
 total energy-change (2. order) :-0.5519368E+02  (-0.5121940E+02)
 number of electron      32.0000059 magnetization 
 augmentation part       32.0000059 magnetization 

 Free energy of the ion-electron system (eV)
  ---------------------------------------------------
  alpha Z        PSCENC =        13.45656811
  Ewald energy   TEWEN  =      -914.25413255
  -Hartree energ DENC   =       -59.62985939
  -exchange      EXHF   =         0.00000000
  -V(xc)+E(xc)   XCENC  =       -71.81379622
  PAW double counting   =       300.18722646     -160.36557401
  entropy T*S    EENTRO =        -0.00000000
  eigenvalues    EBANDS =        29.14722953
  atomic energy  EATOM  =       824.49028925
  Solvation  Ediel_sol  =         0.00000000
  ---------------------------------------------------
  free energy    TOTEN  =       -38.78204883 eV

  energy without entropy =      -38.78204883  energy(sigma->0) =      -38.78204883


--------------------------------------------------------------------------------------------------------




----------------------------------------- Iteration    1(   3)  ---------------------------------------


     EDDAV:  cpu time    3.1460: real time    1.5731
       DOS:  cpu time    0.0009: real time    0.0004
    --------------------------------------------
      LOOP:  cpu time    3.1514: real time    1.5776

 eigenvalue-minimisations  : 10736
 total energy-change (2. order) :-0.1647864E+01  (-0.1633193E+01)
 number of electron      32.0000059 magnetization 
 augmentation part       32.0000059 magnetization 

 Free energy of the ion-electron system (eV)
  ---------------------------------------------------
  alpha Z        PSCENC =        13.45656811
  Ewald energy   TEWEN  =      -914.25413255
  -Hartree energ DENC   =       -59.62985939
  -exchange      EXHF   =         0.00000000
  -V(xc)+E(xc)   XCENC  =       -71.81379622
  PAW double counting   =       300.18722646     -160.36557401
  entropy T*S    EENTRO =        -0.00000000
  eigenvalues    EBANDS =        27.49936549
  atomic energy  EATOM  =       824.49028925
  Solvation  Ediel_sol  =         0.00000000
  ---------------------------------------------------
  free energy    TOTEN  =       -40.42991287 eV

  energy without entropy =      -40.42991287  energy(sigma->0) =      -40.42991287


--------------------------------------------------------------------------------------------------------




----------------------------------------- Iteration    1(   4)  ---------------------------------------


     EDDAV:  cpu time    2.8130: real time    1.4075
       DOS:  cpu time    0.0004: real time    0.0004
    --------------------------------------------
      LOOP:  cpu time    2.8172: real time    1.4114

 eigenvalue-minimisations  :  9776
 total energy-change (2. order) :-0.1016884E-01  (-0.1016786E-01)
 number of electron      32.0000059 magnetization 
 augmentation part       32.0000059 magnetization 

 Free energy of the ion-electron system (eV)
  ---------------------------------------------------
  alpha Z        PSCENC =        13.45656811
  Ewald energy   TEWEN  =      -914.25413255
  -Hartree energ DENC   =       -59.62985939
  -exchange      EXHF   =         0.00000000
  -V(xc)+E(xc)   XCENC  =       -71.81379622
  PAW double counting   =       300.18722646     -160.36557401
  entropy T*S    EENTRO =        -0.00000000
  eigenvalues    EBANDS =        27.48919665
  atomic energy  EATOM  =       824.49028925
  Solvation  Ediel_sol  =         0.00000000
  ---------------------------------------------------
  free energy    TOTEN  =       -40.44008171 eV

  energy without entropy =      -40.44008171  energy(sigma->0) =      -40.44008171


--------------------------------------------------------------------------------------------------------




----------------------------------------- Iteration    1(   5)  ---------------------------------------


     EDDAV:  cpu time   14.6345: real time    7.8884
       DOS:  cpu time    0.0009: real time    0.0005
    --------------------------------------------
      LOOP:  cpu time   14.6398: real time    7.8928

 eigenvalue-minimisations  : 11216
 total energy-change (2. order) :-0.9444058E-04  (-0.9443935E-04)
 number of electron      32.0000059 magnetization 
 augmentation part       32.0000059 magnetization 

 Free energy of the ion-electron system (eV)
  ---------------------------------------------------
  alpha Z        PSCENC =        13.45656811
  Ewald energy   TEWEN  =      -914.25413255
  -Hartree energ DENC   =       -59.62985939
  -exchange      EXHF   =         0.00000000
  -V(xc)+E(xc)   XCENC  =       -71.81379622
  PAW double counting   =       300.18722646     -160.36557401
  entropy T*S    EENTRO =        -0.00000000
  eigenvalues    EBANDS =        27.48910221
  atomic energy  EATOM  =       824.49028925
  Solvation  Ediel_sol  =         0.00000000
  ---------------------------------------------------
  free energy    TOTEN  =       -40.44017615 eV

  energy without entropy =      -40.44017615  energy(sigma->0) =      -40.44017615


--------------------------------------------------------------------------------------------------------




----------------------------------------- Iteration    1(   6)  ---------------------------------------


    EDDIAG:  cpu time    0.6173: real time    0.3087
  RMM-DIIS:  cpu time    1.0437: real time    0.5238
    ORTHCH:  cpu time    0.0688: real time    0.0328
       DOS:  cpu time    0.0004: real time    0.0004
    --------------------------------------------
      LOOP:  cpu time    1.7348: real time    0.8698

 eigenvalue-minimisations  :  7761
 total energy-change (2. order) :-0.1139064E-05  (-0.1139054E-05)
 number of electron      32.0000059 magnetization 
 augmentation part       32.0000059 magnetization 

 Free energy of the ion-electron system (eV)
  ---------------------------------------------------
  alpha Z        PSCENC =        13.45656811
  Ewald energy   TEWEN  =      -914.25413255
  -Hartree energ DENC   =       -59.62985939
  -exchange      EXHF   =         0.00000000
  -V(xc)+E(xc)   XCENC  =       -71.81379622
  PAW double counting   =       300.18722646     -160.36557401
  entropy T*S    EENTRO =        -0.00000000
  eigenvalues    EBANDS =        27.48910107
  atomic energy  EATOM  =       824.49028925
  Solvation  Ediel_sol  =         0.00000000
  ---------------------------------------------------
  free energy    TOTEN  =       -40.44017729 eV

  energy without entropy =      -40.44017729  energy(sigma->0) =      -40.44017729


--------------------------------------------------------------------------------------------------------




----------------------------------------- Iteration    1(   7)  ---------------------------------------


    EDDIAG:  cpu time    0.6068: real time    0.3029
  RMM-DIIS:  cpu time    1.1619: real time    0.6447
    ORTHCH:  cpu time    0.0685: real time    0.0344
       DOS:  cpu time    0.0009: real time    0.0004
    --------------------------------------------
      LOOP:  cpu time    1.8427: real time    0.9864

 eigenvalue-minimisations  :  7949
 total energy-change (2. order) :-0.3465857E-07  (-0.3318384E-07)
 number of electron      32.0000059 magnetization 
 augmentation part       32.0000059 magnetization 

 Free energy of the ion-electron system (eV)
  ---------------------------------------------------
  alpha Z        PSCENC =        13.45656811
  Ewald energy   TEWEN  =      -914.25413255
  -Hartree energ DENC   =       -59.62985939
  -exchange      EXHF   =         0.00000000
  -V(xc)+E(xc)   XCENC  =       -71.81379622
  PAW double counting   =       300.18722646     -160.36557401
  entropy T*S    EENTRO =        -0.00000000
  eigenvalues    EBANDS =        27.48910103
  atomic energy  EATOM  =       824.49028925
  Solvation  Ediel_sol  =         0.00000000
  ---------------------------------------------------
  free energy    TOTEN  =       -40.44017732 eV

  energy without entropy =      -40.44017732  energy(sigma->0) =      -40.44017732


--------------------------------------------------------------------------------------------------------




 average (electrostatic) potential at core
  the test charge radii are     0.9892
  (the norm of the test charge is              1.0000)
       1 -83.2477       2 -83.2477       3 -83.2477       4 -83.2477       5 -83.2477
       6 -83.2477       7 -83.2477       8 -83.2477
 
 
 
 E-fermi :   5.9524     XC(G=0):  -9.4115     alpha+bet :-11.9845


 k-point     1 :       0.0000    0.0000    0.0000
  band No.  band energies     occupation 
      1      -6.1307      2.00000
      2      -1.9840      2.00000
      3      -1.9840      2.00000
      4      -1.9840      2.00000
      5      -1.9840      2.00000
      6      -1.9840      2.00000
      7      -1.9840      2.00000
      8       2.9821      2.00000
      9       2.9821      2.00000
     10       2.9821      2.00000
     11       2.9821      2.00000
     12       2.9821      2.00000
     13       2.9821      2.00000
     14       5.8410      2.00000
     15       5.8410      2.00000
     16       5.8410      2.00000
     17       6.5595      0.00000
     18       6.5595      0.00000
     19       6.5595      0.00000
     20       6.5595      0.00000
     21       6.5595      0.00000
     22       6.5595      0.00000
     23       8.4092      0.00000
     24       8.4092      0.00000
     25       8.4092      0.00000
     26       9.2079      0.00000
     27      13.6282      0.00000
     28      13.6282      0.00000
     29      13.7928      0.00000
     30      15.9658      0.00000
     31      15.9658      0.00000
     32      15.9658      0.00000
     33      15.9658      0.00000
     34      15.9658      0.00000
     35      15.9658      0.00000
     36      16.9224      0.00000
     37      16.9224      0.00000
     38      16.9224      0.00000
     39      16.9224      0.00000
     40      16.9224      0.00000
     41      16.9224      0.00000
     42      17.1130      0.00000
     43      17.1130      0.00000
     44      17.1130      0.00000
     45      18.4604      0.00000
     46      18.4604      0.00000
     47      18.4607      0.00000
     48      18.4610      0.00000

 k-point     2 :       0.0000    0.0385    0.0000
  band No.  band energies     occupation 
      1      -6.1241      2.00000
      2      -2.2779      2.00000
      3      -1.9818      2.00000
      4      -1.9818      2.00000
      5      -1.9818      2.00000
      6      -1.9818      2.00000
      7      -1.6824      2.00000
      8       2.9624      2.00000
      9       2.9624      2.00000
     10       2.9624      2.00000
     11       2.9624      2.00000
     12       2.9879      2.00000
     13       2.9879      2.00000
     14       5.7976      2.00000
     15       5.8139      2.00000
     16       5.8139      2.00000
     17       6.4994      0.00000
     18       6.5955      0.00000
     19       6.5955      0.00000
     20       6.5955      0.00000
     21       6.5955      0.00000
     22       6.6372      0.00000
     23       8.3932      0.00000
     24       8.4456      0.00000
     25       8.4456      0.00000
     26       9.2517      0.00000
     27      13.5736      0.00000
     28      13.6354      0.00000
     29      13.8219      0.00000
     30      15.8260      0.00000
     31      15.8260      0.00000
     32      15.9069      0.00000
     33      15.9069      0.00000
     34      15.9069      0.00000
     35      15.9069      0.00000
     36      16.8366      0.00000
     37      16.8366      0.00000
     38      16.8366      0.00000
     39      16.8366      0.00000
     40      17.0647      0.00000
     41      17.0647      0.00000
     42      17.1270      0.00000
     43      17.1270      0.00000
     44      17.1540      0.00000
     45      18.1001      0.00000
     46      18.5252      0.00000
     47      18.5254      0.00000
     48      18.5282      0.00000

 k-point     3 :       0.0000    0.0769    0.0000
  band No.  band energies     occupation 
      1      -6.1047      2.00000
      2      -2.5635      2.00000
      3      -1.9754      2.00000
      4      -1.9754      2.00000
      5      -1.9754      2.00000
      6      -1.9754      2.00000
      7      -1.3736      2.00000
      8       2.9059      2.00000
      9       2.9059      2.00000
     10       2.9059      2.00000
     11       2.9059      2.00000
     12       3.0055      2.00000
     13       3.0055      2.00000
     14       5.6708      2.00000
     15       5.7340      2.00000
     16       5.7340      2.00000
     17       6.4565      0.00000
     18       6.7005      0.00000
     19       6.7005      0.00000
     20       6.7005      0.00000
     21       6.7005      0.00000
     22       6.7322      0.00000
     23       8.3458      0.00000
     24       8.5496      0.00000
     25       8.5496      0.00000
     26       9.3746      0.00000
     27      13.4212      0.00000
     28      13.6569      0.00000
     29      13.9077      0.00000
     30      15.5288      0.00000
     31      15.5288      0.00000
     32      15.7067      0.00000
     33      15.7067      0.00000
     34      15.7067      0.00000
     35      15.7067      0.00000
     36      16.6786      0.00000
     37      16.6786      0.00000
     38      16.6786      0.00000
     39      16.6786      0.00000
     40      17.1611      0.00000
     41      17.1611      0.00000
     42      17.2603      0.00000
     43      17.3686      0.00000
     44      17.3686      0.00000
     45      17.7533      0.00000
     46      18.2736      0.00000
     47      18.6069      0.00000
     48      18.6069      0.00000

 k-point     4 :       0.0000    0.1154    0.0000
  band No.  band energies     occupation 
      1      -6.0723      2.00000
      2      -2.8404      2.00000
      3      -1.9651      2.00000
      4      -1.9651      2.00000
      5      -1.9651      2.00000
      6      -1.9651      2.00000
      7      -1.0582      2.00000
      8       2.8201      2.00000
      9       2.8201      2.00000
     10       2.8201      2.00000
     11       2.8201      2.00000
     12       3.0347      2.00000
     13       3.0347      2.00000
     14       5.4778      2.00000
     15       5.6134      2.00000
     16       5.6134      2.00000
     17       6.4302      0.00000
     18       6.8459      0.00000
     19       6.8683      0.00000
     20       6.8683      0.00000
     21       6.8683      0.00000
     22       6.8683      0.00000
     23       8.2705      0.00000
     24       8.7102      0.00000
     25       8.7102      0.00000
     26       9.5570      0.00000
     27      13.1984      0.00000
     28      13.6929      0.00000
     29      14.0469      0.00000
     30      15.1842      0.00000
     31      15.1842      0.00000
     32      15.3673      0.00000
     33      15.3673      0.00000
     34      15.3673      0.00000
     35      15.3673      0.00000
     36      16.5726      0.00000
     37      16.5726      0.00000
     38      16.5726      0.00000
     39      16.5726      0.00000
     40      17.2180      0.00000
     41      17.2180      0.00000
     42      17.4139      0.00000
     43      17.4202      0.00000
     44      17.7222      0.00000
     45      17.7222      0.00000
     46      17.9227      0.00000
     47      18.6562      0.00000
     48      18.6562      0.00000

 k-point     5 :       0.0000    0.1538    0.0000
  band No.  band energies     occupation 
      1      -6.0270      2.00000
      2      -3.1081      2.00000
      3      -1.9512      2.00000
      4      -1.9512      2.00000
      5      -1.9512      2.00000
      6      -1.9512      2.00000
      7      -0.7368      2.00000
      8       2.7140      2.00000
      9       2.7140      2.00000
     10       2.7140      2.00000
     11       2.7140      2.00000
     12       3.0755      2.00000
     13       3.0755      2.00000
     14       5.2362      2.00000
     15       5.4646      2.00000
     16       5.4646      2.00000
     17       6.4203      0.00000
     18       6.9781      0.00000
     19       7.0895      0.00000
     20       7.0895      0.00000
     21       7.0895      0.00000
     22       7.0895      0.00000
     23       8.1718      0.00000
     24       8.9148      0.00000
     25       8.9148      0.00000
     26       9.7735      0.00000
     27      12.9391      0.00000
     28      13.7433      0.00000
     29      14.2349      0.00000
     30      14.8252      0.00000
     31      14.8252      0.00000
     32      14.9350      0.00000
     33      14.9350      0.00000
     34      14.9350      0.00000
     35      14.9350      0.00000
     36      16.5184      0.00000
     37      16.5184      0.00000
     38      16.5184      0.00000
     39      16.5184      0.00000
     40      17.1009      0.00000
     41      17.2975      0.00000
     42      17.2975      0.00000
     43      17.5558      0.00000
     44      17.5942      0.00000
     45      18.0890      0.00000
     46      18.0892      0.00000
     47      18.6892      0.00000
     48      18.6892      0.00000

 k-point     6 :       0.0000    0.1923    0.0000
  band No.  band energies     occupation 
      1      -5.9688      2.00000
      2      -3.3663      2.00000
      3      -1.9345      2.00000
      4      -1.9345      2.00000
      5      -1.9345      2.00000
      6      -1.9345      2.00000
      7      -0.4092      2.00000
      8       2.5969      2.00000
      9       2.5969      2.00000
     10       2.5969      2.00000
     11       2.5969      2.00000
     12       3.1278      2.00000
     13       3.1278      2.00000
     14       4.9609      2.00000
     15       5.2983      2.00000
     16       5.2983      2.00000
     17       6.4252      0.00000
     18       7.1295      0.00000
     19       7.3554      0.00000
     20       7.3554      0.00000
     21       7.3554      0.00000
     22       7.3554      0.00000
     23       8.0550      0.00000
     24       9.1525      0.00000
     25       9.1525      0.00000
     26       9.9941      0.00000
     27      12.6801      0.00000
     28      13.8080      0.00000
     29      14.4567      0.00000
     30      14.4567      0.00000
     31      14.4587      0.00000
     32      14.4587      0.00000
     33      14.4587      0.00000
     34      14.4587      0.00000
     35      14.4660      0.00000
     36      16.4927      0.00000
     37      16.4927      0.00000
     38      16.4927      0.00000
     39      16.4927      0.00000
     40      16.7725      0.00000
     41      17.1759      0.00000
     42      17.3994      0.00000
     43      17.3994      0.00000
     44      17.7876      0.00000
     45      18.4564      0.00000
     46      18.4587      0.00000
     47      18.7230      0.00000
     48      18.7230      0.00000

 k-point     7 :       0.0000    0.2308    0.0000
  band No.  band energies     occupation 
      1      -5.8978      2.00000
      2      -3.6145      2.00000
      3      -1.9159      2.00000
      4      -1.9159      2.00000
      5      -1.9159      2.00000
      6      -1.9159      2.00000
      7      -0.0776      2.00000
      8       2.4765      2.00000
      9       2.4765      2.00000
     10       2.4765      2.00000
     11       2.4765      2.00000
     12       3.1917      2.00000
     13       3.1917      2.00000
     14       4.6619      2.00000
     15       5.1225      2.00000
     16       5.1225      2.00000
     17       6.4465      0.00000
     18       7.2994      0.00000
     19       7.6568      0.00000
     20       7.6568      0.00000
     21       7.6568      0.00000
     22       7.6568      0.00000
     23       7.9251      0.00000
     24       9.4150      0.00000
     25       9.4150      0.00000
     26      10.1790      0.00000
     27      12.4583      0.00000
     28      13.8871      0.00000
     29      13.9593      0.00000
     30      13.9593      0.00000
     31      13.9593      0.00000
     32      13.9593      0.00000
     33      14.0932      0.00000
     34      14.0932      0.00000
     35      14.7347      0.00000
     36      16.4761      0.00000
     37      16.4761      0.00000
     38      16.4761      0.00000
     39      16.4761      0.00000
     40      16.4808      0.00000
     41      16.7851      0.00000
     42      17.5234      0.00000
     43      17.5234      0.00000
     44      17.9853      0.00000
     45      18.7571      0.00000
     46      18.7572      0.00000
     47      18.7668      0.00000
     48      18.7923      0.00000

 k-point     8 :       0.0000    0.2692    0.0000
  band No.  band energies     occupation 
      1      -5.8141      2.00000
      2      -3.8524      2.00000
      3      -1.8962      2.00000
      4      -1.8962      2.00000
      5      -1.8962      2.00000
      6      -1.8962      2.00000
      7       0.2579      2.00000
      8       2.3600      2.00000
      9       2.3600      2.00000
     10       2.3600      2.00000
     11       2.3600      2.00000
     12       3.2667      2.00000
     13       3.2667      2.00000
     14       4.3476      2.00000
     15       4.9430      2.00000
     16       4.9430      2.00000
     17       6.4817      0.00000
     18       7.4880      0.00000
     19       7.7871      0.00000
     20       7.9901      0.00000
     21       7.9901      0.00000
     22       7.9901      0.00000
     23       7.9901      0.00000
     24       9.6966      0.00000
     25       9.6966      0.00000
     26      10.2773      0.00000
     27      12.3446      0.00000
     28      13.4580      0.00000
     29      13.4580      0.00000
     30      13.4580      0.00000
     31      13.4580      0.00000
     32      13.7232      0.00000
     33      13.7232      0.00000
     34      13.9805      0.00000
     35      15.0358      0.00000
     36      16.2001      0.00000
     37      16.3825      0.00000
     38      16.4677      0.00000
     39      16.4677      0.00000
     40      16.4677      0.00000
     41      16.4677      0.00000
     42      17.6692      0.00000
     43      17.6693      0.00000
     44      18.1890      0.00000
     45      18.7904      0.00000
     46      18.7921      0.00000
     47      18.8178      0.00000
     48      18.9623      0.00000

 k-point     9 :       0.0000    0.3077    0.0000
  band No.  band energies     occupation 
      1      -5.7177      2.00000
      2      -4.0797      2.00000
      3      -1.8766      2.00000
      4      -1.8766      2.00000
      5      -1.8766      2.00000
      6      -1.8766      2.00000
      7       0.5969      2.00000
      8       2.2531      2.00000
      9       2.2531      2.00000
     10       2.2531      2.00000
     11       2.2531      2.00000
     12       3.3539      2.00000
     13       3.3539      2.00000
     14       4.0219      2.00000
     15       4.7622      2.00000
     16       4.7622      2.00000
     17       6.5321      0.00000
     18       7.6443      0.00000
     19       7.6962      0.00000
     20       8.3488      0.00000
     21       8.3488      0.00000
     22       8.3488      0.00000
     23       8.3488      0.00000
     24       9.9919      0.00000
     25       9.9919      0.00000
     26      10.2453      0.00000
     27      12.3771      0.00000
     28      12.9560      0.00000
     29      12.9560      0.00000
     30      12.9560      0.00000
     31      12.9560      0.00000
     32      13.3640      0.00000
     33      13.3640      0.00000
     34      14.0853      0.00000
     35      15.3645      0.00000
     36      15.9363      0.00000
     37      15.9765      0.00000
     38      16.4665      0.00000
     39      16.4665      0.00000
     40      16.4665      0.00000
     41      16.4665      0.00000
     42      17.8322      0.00000
     43      17.8323      0.00000
     44      18.3968      0.00000
     45      18.8255      0.00000
     46      18.8255      0.00000
     47      18.8257      0.00000
     48      18.8295      0.00000

 k-point    10 :       0.0000    0.3462    0.0000
  band No.  band energies     occupation 
      1      -5.6086      2.00000
      2      -4.2961      2.00000
      3      -1.8581      2.00000
      4      -1.8581      2.00000
      5      -1.8581      2.00000
      6      -1.8581      2.00000
      7       0.9387      2.00000
      8       2.1599      2.00000
      9       2.1599      2.00000
     10       2.1599      2.00000
     11       2.1599      2.00000
     12       3.4514      2.00000
     13       3.4514      2.00000
     14       3.6886      2.00000
     15       4.5860      2.00000
     16       4.5860      2.00000
     17       6.5962      0.00000
     18       7.5016      0.00000
     19       7.9222      0.00000
     20       8.7282      0.00000
     21       8.7282      0.00000
     22       8.7282      0.00000
     23       8.7282      0.00000
     24      10.0882      0.00000
     25      10.3000      0.00000
     26      10.3000      0.00000
     27      12.4599      0.00000
     28      12.4599      0.00000
     29      12.4599      0.00000
     30      12.4599      0.00000
     31      12.5551      0.00000
     32      13.0072      0.00000
     33      13.0072      0.00000
     34      14.2060      0.00000
     35      15.5656      0.00000
     36      15.6867      0.00000
     37      15.7166      0.00000
     38      16.4605      0.00000
     39      16.4605      0.00000
     40      16.4605      0.00000
     41      16.4605      0.00000
     42      18.0188      0.00000
     43      18.0188      0.00000
     44      18.6215      0.00000
     45      18.8305      0.00000
     46      18.8566      0.00000
     47      18.8566      0.00000
     48      18.8567      0.00000

 k-point    11 :       0.0000    0.3846    0.0000
  band No.  band energies     occupation 
      1      -5.4870      2.00000
      2      -4.5017      2.00000
      3      -1.8423      2.00000
      4      -1.8423      2.00000
      5      -1.8423      2.00000
      6      -1.8423      2.00000
      7       1.2825      2.00000
      8       2.0839      2.00000
      9       2.0839      2.00000
     10       2.0839      2.00000
     11       2.0839      2.00000
     12       3.3507      2.00000
     13       3.5596      2.00000
     14       3.5596      2.00000
     15       4.4150      2.00000
     16       4.4150      2.00000
     17       6.6723      0.00000
     18       7.3610      0.00000
     19       8.1659      0.00000
     20       9.1238      0.00000
     21       9.1238      0.00000
     22       9.1238      0.00000
     23       9.1238      0.00000
     24       9.8509      0.00000
     25      10.6174      0.00000
     26      10.6174      0.00000
     27      11.9749      0.00000
     28      11.9749      0.00000
     29      11.9749      0.00000
     30      11.9749      0.00000
     31      12.6532      0.00000
     32      12.6532      0.00000
     33      12.8295      0.00000
     34      14.3423      0.00000
     35      15.1523      0.00000
     36      15.4511      0.00000
     37      16.0877      0.00000
     38      16.4637      0.00000
     39      16.4637      0.00000
     40      16.4637      0.00000
     41      16.4637      0.00000
     42      18.2233      0.00000
     43      18.2234      0.00000
     44      18.4651      0.00000
     45      18.8508      0.00000
     46      18.8856      0.00000
     47      18.8860      0.00000
     48      18.8871      0.00000

 k-point    12 :       0.0000    0.4231    0.0000
  band No.  band energies     occupation 
      1      -5.3530      2.00000
      2      -4.6956      2.00000
      3      -1.8302      2.00000
      4      -1.8302      2.00000
      5      -1.8302      2.00000
      6      -1.8302      2.00000
      7       1.6277      2.00000
      8       2.0276      2.00000
      9       2.0276      2.00000
     10       2.0276      2.00000
     11       2.0276      2.00000
     12       3.0091      2.00000
     13       3.6784      2.00000
     14       3.6784      2.00000
     15       4.2507      2.00000
     16       4.2507      2.00000
     17       6.7620      0.00000
     18       7.2251      0.00000
     19       8.4261      0.00000
     20       9.5263      0.00000
     21       9.5263      0.00000
     22       9.5263      0.00000
     23       9.5263      0.00000
     24       9.5735      0.00000
     25      10.9427      0.00000
     26      10.9427      0.00000
     27      11.5079      0.00000
     28      11.5079      0.00000
     29      11.5079      0.00000
     30      11.5079      0.00000
     31      12.3030      0.00000
     32      12.3030      0.00000
     33      13.1637      0.00000
     34      14.4929      0.00000
     35      14.7390      0.00000
     36      15.2296      0.00000
     37      16.4651      0.00000
     38      16.4651      0.00000
     39      16.4651      0.00000
     40      16.4651      0.00000
     41      16.4740      0.00000
     42      18.0802      0.00000
     43      18.4429      0.00000
     44      18.4430      0.00000
     45      18.9083      0.00000
     46      18.9084      0.00000
     47      18.9093      0.00000
     48      18.9130      0.00000

 k-point    13 :       0.0000    0.4615    0.0000
  band No.  band energies     occupation 
      1      -5.2067      2.00000
      2      -4.8778      2.00000
      3      -1.8227      2.00000
      4      -1.8227      2.00000
      5      -1.8227      2.00000
      6      -1.8227      2.00000
      7       1.9737      2.00000
      8       1.9928      2.00000
      9       1.9928      2.00000
     10       1.9928      2.00000
     11       1.9928      2.00000
     12       2.6652      2.00000
     13       3.8074      2.00000
     14       3.8074      2.00000
     15       4.0941      2.00000
     16       4.0941      2.00000
     17       6.8632      0.00000
     18       7.0956      0.00000
     19       8.7011      0.00000
     20       9.2810      0.00000
     21       9.9085      0.00000
     22       9.9085      0.00000
     23       9.9085      0.00000
     24       9.9085      0.00000
     25      11.0830      0.00000
     26      11.0830      0.00000
     27      11.0830      0.00000
     28      11.0830      0.00000
     29      11.2745      0.00000
     30      11.2745      0.00000
     31      11.9568      0.00000
     32      11.9568      0.00000
     33      13.5332      0.00000
     34      14.3289      0.00000
     35      14.6578      0.00000
     36      15.0223      0.00000
     37      16.4659      0.00000
     38      16.4659      0.00000
     39      16.4659      0.00000
     40      16.4659      0.00000
     41      16.8713      0.00000
     42      17.6811      0.00000
     43      18.6731      0.00000
     44      18.6761      0.00000
     45      18.9152      0.00000
     46      18.9163      0.00000
     47      18.9378      0.00000
     48      18.9773      0.00000

 k-point    14 :       0.0000    0.5000    0.0000
  band No.  band energies     occupation 
      1      -5.0482      2.00000
      2      -5.0482      2.00000
      3      -1.8201      2.00000
      4      -1.8201      2.00000
      5      -1.8201      2.00000
      6      -1.8201      2.00000
      7       1.9811      2.00000
      8       1.9811      2.00000
      9       1.9811      2.00000
     10       1.9811      2.00000
     11       2.3198      2.00000
     12       2.3198      2.00000
     13       3.9463      2.00000
     14       3.9463      2.00000
     15       3.9463      2.00000
     16       3.9463      2.00000
     17       6.9750      0.00000
     18       6.9750      0.00000
     19       8.9878      0.00000
     20       8.9878      0.00000
     21      10.1258      0.00000
     22      10.1258      0.00000
     23      10.1258      0.00000
     24      10.1258      0.00000
     25      10.8528      0.00000
     26      10.8528      0.00000
     27      10.8528      0.00000
     28      10.8528      0.00000
     29      11.6159      0.00000
     30      11.6159      0.00000
     31      11.6159      0.00000
     32      11.6159      0.00000
     33      13.9259      0.00000
     34      13.9259      0.00000
     35      14.8369      0.00000
     36      14.8369      0.00000
     37      16.4662      0.00000
     38      16.4662      0.00000
     39      16.4662      0.00000
     40      16.4662      0.00000
     41      17.2762      0.00000
     42      17.2762      0.00000
     43      18.9107      0.00000
     44      18.9108      0.00000
     45      18.9115      0.00000
     46      18.9144      0.00000
     47      18.9201      0.00000
     48      18.9202      0.00000

 k-point    15 :       0.0000    0.5385    0.0000
  band No.  band energies     occupation 
      1      -5.2067      2.00000
      2      -4.8778      2.00000
      3      -1.8227      2.00000
      4      -1.8227      2.00000
      5      -1.8227      2.00000
      6      -1.8227      2.00000
      7       1.9737      2.00000
      8       1.9928      2.00000
      9       1.9928      2.00000
     10       1.9928      2.00000
     11       1.9928      2.00000
     12       2.6652      2.00000
     13       3.8074      2.00000
     14       3.8074      2.00000
     15       4.0941      2.00000
     16       4.0941      2.00000
     17       6.8632      0.00000
     18       7.0956      0.00000
     19       8.7011      0.00000
     20       9.2810      0.00000
     21       9.9085      0.00000
     22       9.9085      0.00000
     23       9.9085      0.00000
     24       9.9085      0.00000
     25      11.0830      0.00000
     26      11.0830      0.00000
     27      11.0830      0.00000
     28      11.0830      0.00000
     29      11.2745      0.00000
     30      11.2745      0.00000
     31      11.9568      0.00000
     32      11.9568      0.00000
     33      13.5332      0.00000
     34      14.3289      0.00000
     35      14.6578      0.00000
     36      15.0223      0.00000
     37      16.4659      0.00000
     38      16.4659      0.00000
     39      16.4659      0.00000
     40      16.4659      0.00000
     41      16.8713      0.00000
     42      17.6811      0.00000
     43      18.6730      0.00000
     44      18.6732      0.00000
     45      18.9152      0.00000
     46      18.9154      0.00000
     47      18.9164      0.00000
     48      18.9187      0.00000

 k-point    16 :       0.0000    0.5769    0.0000
  band No.  band energies     occupation 
      1      -5.3530      2.00000
      2      -4.6956      2.00000
      3      -1.8302      2.00000
      4      -1.8302      2.00000
      5      -1.8302      2.00000
      6      -1.8302      2.00000
      7       1.6277      2.00000
      8       2.0276      2.00000
      9       2.0276      2.00000
     10       2.0276      2.00000
     11       2.0276      2.00000
     12       3.0091      2.00000
     13       3.6784      2.00000
     14       3.6784      2.00000
     15       4.2507      2.00000
     16       4.2507      2.00000
     17       6.7620      0.00000
     18       7.2251      0.00000
     19       8.4261      0.00000
     20       9.5263      0.00000
     21       9.5263      0.00000
     22       9.5263      0.00000
     23       9.5263      0.00000
     24       9.5735      0.00000
     25      10.9427      0.00000
     26      10.9427      0.00000
     27      11.5079      0.00000
     28      11.5079      0.00000
     29      11.5079      0.00000
     30      11.5079      0.00000
     31      12.3030      0.00000
     32      12.3030      0.00000
     33      13.1637      0.00000
     34      14.4929      0.00000
     35      14.7390      0.00000
     36      15.2296      0.00000
     37      16.4651      0.00000
     38      16.4651      0.00000
     39      16.4651      0.00000
     40      16.4651      0.00000
     41      16.4740      0.00000
     42      18.0802      0.00000
     43      18.4429      0.00000
     44      18.4429      0.00000
     45      18.9083      0.00000
     46      18.9084      0.00000
     47      18.9088      0.00000
     48      18.9154      0.00000

 k-point    17 :       0.0000    0.6154    0.0000
  band No.  band energies     occupation 
      1      -5.4870      2.00000
      2      -4.5017      2.00000
      3      -1.8423      2.00000
      4      -1.8423      2.00000
      5      -1.8423      2.00000
      6      -1.8423      2.00000
      7       1.2825      2.00000
      8       2.0839      2.00000
      9       2.0839      2.00000
     10       2.0839      2.00000
     11       2.0839      2.00000
     12       3.3507      2.00000
     13       3.5596      2.00000
     14       3.5596      2.00000
     15       4.4150      2.00000
     16       4.4150      2.00000
     17       6.6723      0.00000
     18       7.3610      0.00000
     19       8.1659      0.00000
     20       9.1238      0.00000
     21       9.1238      0.00000
     22       9.1238      0.00000
     23       9.1238      0.00000
     24       9.8509      0.00000
     25      10.6174      0.00000
     26      10.6174      0.00000
     27      11.9749      0.00000
     28      11.9749      0.00000
     29      11.9749      0.00000
     30      11.9749      0.00000
     31      12.6532      0.00000
     32      12.6532      0.00000
     33      12.8295      0.00000
     34      14.3423      0.00000
     35      15.1523      0.00000
     36      15.4511      0.00000
     37      16.0877      0.00000
     38      16.4637      0.00000
     39      16.4637      0.00000
     40      16.4637      0.00000
     41      16.4637      0.00000
     42      18.2233      0.00000
     43      18.2233      0.00000
     44      18.4648      0.00000
     45      18.8475      0.00000
     46      18.8856      0.00000
     47      18.8857      0.00000
     48      18.8859      0.00000

 k-point    18 :       0.0000    0.6538    0.0000
  band No.  band energies     occupation 
      1      -5.6086      2.00000
      2      -4.2961      2.00000
      3      -1.8581      2.00000
      4      -1.8581      2.00000
      5      -1.8581      2.00000
      6      -1.8581      2.00000
      7       0.9387      2.00000
      8       2.1599      2.00000
      9       2.1599      2.00000
     10       2.1599      2.00000
     11       2.1599      2.00000
     12       3.4514      2.00000
     13       3.4514      2.00000
     14       3.6886      2.00000
     15       4.5860      2.00000
     16       4.5860      2.00000
     17       6.5962      0.00000
     18       7.5016      0.00000
     19       7.9222      0.00000
     20       8.7282      0.00000
     21       8.7282      0.00000
     22       8.7282      0.00000
     23       8.7282      0.00000
     24      10.0882      0.00000
     25      10.3000      0.00000
     26      10.3000      0.00000
     27      12.4599      0.00000
     28      12.4599      0.00000
     29      12.4599      0.00000
     30      12.4599      0.00000
     31      12.5551      0.00000
     32      13.0072      0.00000
     33      13.0072      0.00000
     34      14.2060      0.00000
     35      15.5656      0.00000
     36      15.6867      0.00000
     37      15.7166      0.00000
     38      16.4605      0.00000
     39      16.4605      0.00000
     40      16.4605      0.00000
     41      16.4605      0.00000
     42      18.0188      0.00000
     43      18.0188      0.00000
     44      18.6210      0.00000
     45      18.8267      0.00000
     46      18.8566      0.00000
     47      18.8567      0.00000
     48      18.8568      0.00000

 k-point    19 :       0.0000    0.6923    0.0000
  band No.  band energies     occupation 
      1      -5.7177      2.00000
      2      -4.0797      2.00000
      3      -1.8766      2.00000
      4      -1.8766      2.00000
      5      -1.8766      2.00000
      6      -1.8766      2.00000
      7       0.5969      2.00000
      8       2.2531      2.00000
      9       2.2531      2.00000
     10       2.2531      2.00000
     11       2.2531      2.00000
     12       3.3539      2.00000
     13       3.3539      2.00000
     14       4.0219      2.00000
     15       4.7622      2.00000
     16       4.7622      2.00000
     17       6.5321      0.00000
     18       7.6443      0.00000
     19       7.6962      0.00000
     20       8.3488      0.00000
[...]
     18       8.7062      0.00000
     19       8.8994      0.00000
     20       8.8994      0.00000
     21       9.6455      0.00000
     22       9.6455      0.00000
     23       9.9178      0.00000
     24      10.2515      0.00000
     25      10.7346      0.00000
     26      10.7346      0.00000
     27      11.4897      0.00000
     28      11.6184      0.00000
     29      11.8268      0.00000
     30      11.9893      0.00000
     31      11.9893      0.00000
     32      12.0131      0.00000
     33      12.6139      0.00000
     34      12.8979      0.00000
     35      13.6383      0.00000
     36      13.6447      0.00000
     37      13.6447      0.00000
     38      15.5860      0.00000
     39      15.5860      0.00000
     40      16.5619      0.00000
     41      16.9176      0.00000
     42      17.8674      0.00000
     43      18.6542      0.00000
     44      18.6542      0.00000
     45      19.0854      0.00000
     46      19.0916      0.00000
     47      19.4179      0.00000
     48      19.4714      0.00000

 k-point    79 :       0.6161    0.6161    0.0000
  band No.  band energies     occupation 
      1      -4.8829      2.00000
      2      -3.9665      2.00000
      3      -3.9665      2.00000
      4      -3.2176      2.00000
      5      -0.5976      2.00000
      6       0.2875      2.00000
      7       0.2875      2.00000
      8       1.5163      2.00000
      9       1.5370      2.00000
     10       2.1720      2.00000
     11       2.1720      2.00000
     12       2.9718      2.00000
     13       3.9236      2.00000
     14       3.9236      2.00000
     15       3.9451      2.00000
     16       5.0646      2.00000
     17       7.6730      0.00000
     18       8.7909      0.00000
     19       9.2520      0.00000
     20       9.2520      0.00000
     21       9.3117      0.00000
     22       9.3117      0.00000
     23       9.7294      0.00000
     24      10.0496      0.00000
     25      10.3357      0.00000
     26      10.3357      0.00000
     27      11.5625      0.00000
     28      11.7724      0.00000
     29      11.9761      0.00000
     30      12.0351      0.00000
     31      12.3226      0.00000
     32      12.3226      0.00000
     33      12.8343      0.00000
     34      13.1117      0.00000
     35      13.1182      0.00000
     36      14.0808      0.00000
     37      14.0808      0.00000
     38      15.6417      0.00000
     39      15.6417      0.00000
     40      16.3272      0.00000
     41      16.5688      0.00000
     42      17.6787      0.00000
     43      18.7550      0.00000
     44      18.7550      0.00000
     45      19.0751      0.00000
     46      19.0755      0.00000
     47      19.5659      0.00000
     48      19.5720      0.00000

 k-point    80 :       0.6429    0.6429    0.0000
  band No.  band energies     occupation 
      1      -5.0449      2.00000
      2      -3.9050      2.00000
      3      -3.9050      2.00000
      4      -3.0263      2.00000
      5      -0.7830      2.00000
      6       0.2437      2.00000
      7       0.2437      2.00000
      8       1.4520      2.00000
      9       1.8404      2.00000
     10       2.2176      2.00000
     11       2.2176      2.00000
     12       3.2075      2.00000
     13       3.7169      2.00000
     14       3.7169      2.00000
     15       3.8250      2.00000
     16       5.1791      2.00000
     17       7.5346      0.00000
     18       8.8533      0.00000
     19       8.9866      0.00000
     20       8.9866      0.00000
     21       9.5524      0.00000
     22       9.6301      0.00000
     23       9.6301      0.00000
     24       9.8608      0.00000
     25       9.9717      0.00000
     26       9.9717      0.00000
     27      11.5311      0.00000
     28      11.9672      0.00000
     29      12.0165      0.00000
     30      12.0635      0.00000
     31      12.6492      0.00000
     32      12.6492      0.00000
     33      12.8382      0.00000
     34      13.0667      0.00000
     35      13.3415      0.00000
     36      14.5112      0.00000
     37      14.5112      0.00000
     38      15.7110      0.00000
     39      15.7110      0.00000
     40      15.7585      0.00000
     41      16.4740      0.00000
     42      17.5129      0.00000
     43      18.8650      0.00000
     44      18.8654      0.00000
     45      19.0751      0.00000
     46      19.0776      0.00000
     47      19.6008      0.00000
     48      19.6801      0.00000

 k-point    81 :       0.6696    0.6696    0.0000
  band No.  band energies     occupation 
      1      -5.1972      2.00000
      2      -3.8312      2.00000
      3      -3.8312      2.00000
      4      -2.8453      2.00000
      5      -0.9554      2.00000
      6       0.1832      2.00000
      7       0.1832      2.00000
      8       1.4187      2.00000
      9       2.1546      2.00000
     10       2.2713      2.00000
     11       2.2713      2.00000
     12       3.4513      2.00000
     13       3.5198      2.00000
     14       3.5198      2.00000
     15       3.7107      2.00000
     16       5.2860      2.00000
     17       7.4023      0.00000
     18       8.6697      0.00000
     19       8.6697      0.00000
     20       8.8922      0.00000
     21       9.3890      0.00000
     22       9.5335      0.00000
     23       9.5335      0.00000
     24       9.6839      0.00000
     25      10.1374      0.00000
     26      10.1374      0.00000
     27      11.5168      0.00000
     28      11.6105      0.00000
     29      11.9909      0.00000
     30      12.3649      0.00000
     31      12.9639      0.00000
     32      12.9697      0.00000
     33      12.9697      0.00000
     34      13.3098      0.00000
     35      13.5873      0.00000
     36      14.9327      0.00000
     37      14.9327      0.00000
     38      15.2189      0.00000
     39      15.7938      0.00000
     40      15.7938      0.00000
     41      16.3119      0.00000
     42      17.3676      0.00000
     43      18.9279      0.00000
     44      18.9282      0.00000
     45      19.1347      0.00000
     46      19.1350      0.00000
     47      19.2431      0.00000
     48      19.8011      0.00000

 k-point    82 :       0.6964    0.6964    0.0000
  band No.  band energies     occupation 
      1      -5.3392      2.00000
      2      -3.7451      2.00000
      3      -3.7451      2.00000
      4      -2.6782      2.00000
      5      -1.1147      2.00000
      6       0.1021      2.00000
      7       0.1021      2.00000
      8       1.4195      2.00000
      9       2.3321      2.00000
     10       2.3321      2.00000
     11       2.4783      2.00000
     12       3.3426      2.00000
     13       3.3426      2.00000
     14       3.6029      2.00000
     15       3.7008      2.00000
     16       5.3832      2.00000
     17       7.2776      0.00000
     18       8.3633      0.00000
     19       8.3633      0.00000
     20       8.9083      0.00000
     21       9.1791      0.00000
     22       9.1791      0.00000
     23       9.2371      0.00000
     24       9.5131      0.00000
     25      10.5997      0.00000
     26      10.5997      0.00000
     27      11.0790      0.00000
     28      11.5057      0.00000
     29      12.0402      0.00000
     30      12.6762      0.00000
     31      13.2378      0.00000
     32      13.2771      0.00000
     33      13.2771      0.00000
     34      13.5618      0.00000
     35      13.8478      0.00000
     36      14.7132      0.00000
     37      15.3318      0.00000
     38      15.3318      0.00000
     39      15.8851      0.00000
     40      15.8851      0.00000
     41      16.1037      0.00000
     42      17.2425      0.00000
     43      18.8732      0.00000
     44      18.9107      0.00000
     45      18.9108      0.00000
     46      19.2515      0.00000
     47      19.2517      0.00000
     48      19.9211      0.00000

 k-point    83 :       0.7232    0.7232    0.0000
  band No.  band energies     occupation 
      1      -5.4702      2.00000
      2      -3.6466      2.00000
      3      -3.6466      2.00000
      4      -2.5283      2.00000
      5      -1.2607      2.00000
      6      -0.0018      2.00000
      7      -0.0018      2.00000
      8       1.4567      2.00000
      9       2.3996      2.00000
     10       2.3996      2.00000
     11       2.8115      2.00000
     12       3.1933      2.00000
     13       3.1933      2.00000
     14       3.5023      2.00000
     15       3.9541      2.00000
     16       5.4707      2.00000
     17       7.1609      0.00000
     18       8.0716      0.00000
     19       8.0716      0.00000
     20       8.8317      0.00000
     21       8.8317      0.00000
     22       8.9062      0.00000
     23       9.0979      0.00000
     24       9.3562      0.00000
     25      10.5287      0.00000
     26      11.0958      0.00000
     27      11.0958      0.00000
     28      11.4763      0.00000
     29      12.1187      0.00000
     30      12.9965      0.00000
     31      13.5527      0.00000
     32      13.5745      0.00000
     33      13.5745      0.00000
     34      13.8208      0.00000
     35      14.1218      0.00000
     36      14.2739      0.00000
     37      15.7111      0.00000
     38      15.7111      0.00000
     39      15.8633      0.00000
     40      15.9896      0.00000
     41      15.9896      0.00000
     42      17.1387      0.00000
     43      18.5391      0.00000
     44      18.8565      0.00000
     45      18.8565      0.00000
     46      19.3215      0.00000
     47      19.3216      0.00000
     48      20.0253      0.00000

 k-point    84 :       0.7500    0.7500    0.0000
  band No.  band energies     occupation 
      1      -5.5900      2.00000
      2      -3.5362      2.00000
      3      -3.5362      2.00000
      4      -2.3977      2.00000
      5      -1.3934      2.00000
      6      -0.1298      2.00000
      7      -0.1298      2.00000
      8       1.5319      2.00000
      9       2.4721      2.00000
     10       2.4721      2.00000
     11       3.0757      2.00000
     12       3.0757      2.00000
     13       3.1543      2.00000
     14       3.4094      2.00000
     15       4.2095      2.00000
     16       5.5482      2.00000
     17       7.0533      0.00000
     18       7.7958      0.00000
     19       7.7958      0.00000
     20       8.4991      0.00000
     21       8.4991      0.00000
     22       8.8897      0.00000
     23       8.9720      0.00000
     24       9.2108      0.00000
     25       9.9848      0.00000
     26      11.4012      0.00000
     27      11.6129      0.00000
     28      11.6129      0.00000
     29      12.2338      0.00000
     30      13.3254      0.00000
     31      13.8610      0.00000
     32      13.8610      0.00000
     33      13.8888      0.00000
     34      13.9191      0.00000
     35      14.0851      0.00000
     36      14.4091      0.00000
     37      15.6006      0.00000
     38      16.0675      0.00000
     39      16.0675      0.00000
     40      16.1028      0.00000
     41      16.1028      0.00000
     42      17.0576      0.00000
     43      18.2433      0.00000
     44      18.7705      0.00000
     45      18.7705      0.00000
     46      19.2640      0.00000
     47      19.2640      0.00000
     48      20.0926      0.00000


--------------------------------------------------------------------------------------------------------


 soft charge-density along one line, spin component           1
         0         1         2         3         4         5         6         7         8         9
 total charge-density along one line
 
 pseudopotential strength for first ion, spin component:           1
 18.415   0.000  -0.001   0.000  -0.000   0.000   0.000   0.000  -0.000   0.000   0.000   0.000  -0.000   0.000   0.000   0.000
 -0.001   0.000   0.006   0.000   0.000   0.000  -0.000   0.000   0.000   0.000  -0.000   0.000   0.000   0.000  -0.000   0.000
 -0.000   0.000   0.000   0.000   4.179   0.000   0.000   0.000   0.000   0.000  -0.005   0.000  -0.000   0.000  -0.000   0.000
  0.000   0.000  -0.000   0.000   0.000   0.000   4.179   0.000  -0.000   0.000  -0.000   0.000  -0.005   0.000   0.000   0.000
 -0.000   0.000   0.000   0.000   0.000   0.000  -0.000   0.000   4.179   0.000  -0.000   0.000   0.000   0.000  -0.005   0.000
  0.000   0.000  -0.000   0.000  -0.005   0.000  -0.000   0.000  -0.000   0.000   0.005   0.000   0.000   0.000   0.000   0.000
 -0.000   0.000   0.000   0.000  -0.000   0.000  -0.005   0.000   0.000   0.000   0.000   0.000   0.005   0.000  -0.000   0.000
  0.000   0.000  -0.000   0.000  -0.000   0.000   0.000   0.000  -0.005   0.000   0.000   0.000  -0.000   0.000   0.005   0.000
 total augmentation occupancy for first ion, spin component:           1
  2.000   0.000   0.000   0.000   0.000   0.000   0.000   0.000
  0.000   0.000   0.000   0.000   0.000   0.000   0.000   0.000
  0.000   0.000   0.667   0.000   0.000   0.000   0.000   0.000
  0.000   0.000   0.000   0.667   0.000   0.000   0.000   0.000
  0.000   0.000   0.000   0.000   0.667   0.000   0.000   0.000
  0.000   0.000   0.000   0.000   0.000   0.000   0.000   0.000
  0.000   0.000   0.000   0.000   0.000   0.000   0.000   0.000
  0.000   0.000   0.000   0.000   0.000   0.000   0.000   0.000


------------------------ aborting loop because EDIFF is reached ----------------------------------------


    CHARGE:  cpu time    0.0475: real time    0.0237
    FORLOC:  cpu time    0.0024: real time    0.0012
    FORNL :  cpu time    0.4377: real time    0.2453
    STRESS:  cpu time    1.6820: real time    0.8754
    FORCOR:  cpu time    0.0057: real time    0.0057
    FORHAR:  cpu time    0.0019: real time    0.0019
    OFIELD:  cpu time    0.0000: real time    0.0000

  FORCE on cell =-STRESS in cart. coord.  units (eV):
  Direction    XX          YY          ZZ          XY          YZ          ZX
  --------------------------------------------------------------------------------------
  Alpha Z    13.45657    13.45657    13.45657
  Ewald    -304.75190  -304.75190  -304.75190    -0.00000    -0.00000    -0.00000
  Hartree    20.96885    20.96885    20.96885    -0.00000    -0.00000    -0.00000
  E(xc)    -101.66149  -101.66149  -101.66149    -0.00000     0.00000     0.00000
  Local    -119.74881  -119.74881  -119.74881    -0.00000     0.00000    -0.00000
  n-local   314.08703   310.86350   310.27831    -2.42162    -1.04600    -1.50708
  augment   -45.88410   -45.88410   -45.88410     0.00000     0.00000    -0.00000
  Kinetic   234.49148   226.99874   233.69428    -2.97775    -1.52658    -1.90897
  Fock        0.00000     0.00000     0.00000     0.00000     0.00000     0.00000
  -------------------------------------------------------------------------------------
  Total       5.85025     5.85025     5.85025    -0.00000    -0.00000    -0.00000
  in kB      58.54439    58.54439    58.54439    -0.00000    -0.00000    -0.00000
  external pressure =       58.54 kB  Pullay stress =        0.00 kB


 VOLUME and BASIS-vectors are now :
 -----------------------------------------------------------------------------
  energy-cutoff  :      245.34
  volume of cell :      160.10
      direct lattice vectors                 reciprocal lattice vectors
     5.430000000  0.000000000  0.000000000     0.184162063  0.000000000  0.000000000
     0.000000000  5.430000000  0.000000000     0.000000000  0.184162063  0.000000000
     0.000000000  0.000000000  5.430000000     0.000000000  0.000000000  0.184162063

  length of vectors
     5.430000000  5.430000000  5.430000000     0.184162063  0.184162063  0.184162063


 FORCES acting on ions
    electron-ion (+dipol)            ewald-force                    non-local-force                 convergence-correction
 -----------------------------------------------------------------------------------------------
   0.366E-14 0.118E-14 0.354E-15   -.355E-14 -.355E-14 0.000E+00   0.781E-17 -.317E-16 0.234E-16   0.793E-13 0.514E-14 -.576E-13
   0.150E-14 -.128E-13 -.156E-13   -.355E-14 -.355E-14 0.000E+00   0.781E-16 0.434E-17 0.256E-16   -.748E-14 0.792E-13 0.436E-13
   -.113E-13 -.152E-12 0.131E-14   -.355E-14 -.355E-14 0.000E+00   0.781E-17 -.390E-17 0.382E-16   -.266E-13 -.205E-13 -.213E-13
   -.506E-14 0.208E-14 -.153E-12   -.355E-14 -.355E-14 0.000E+00   0.226E-16 0.954E-17 0.221E-16   -.849E-14 -.116E-13 0.354E-13
   -.256E-13 0.992E-13 -.108E-12   0.336E-14 0.728E-14 0.376E-15   -.659E-16 -.134E-16 -.143E-16   -.262E-13 0.381E-13 0.713E-16
   -.106E-13 -.166E-16 0.124E-14   -.282E-15 0.729E-14 -.365E-15   -.156E-16 0.434E-17 -.317E-16   0.767E-13 0.364E-13 -.527E-13
   -.952E-14 -.338E-13 -.306E-13   -.372E-15 0.694E-14 0.295E-15   -.486E-16 -.299E-16 -.186E-16   0.493E-14 -.192E-13 -.434E-14
   -.281E-13 -.111E-12 0.986E-13   0.441E-14 0.695E-14 -.446E-15   0.173E-17 0.191E-16 -.377E-16   -.110E-14 -.737E-13 0.700E-13
 -----------------------------------------------------------------------------------------------
   -.851E-13 -.207E-12 -.206E-12   -.709E-14 0.143E-13 -.140E-15   -.121E-16 -.416E-16 0.694E-17   0.911E-13 0.338E-13 0.131E-13
 
 
 POSITION                                       TOTAL-FORCE (eV/Angst)
 -----------------------------------------------------------------------------------
      0.00000      0.00000      0.00000         0.000000     -0.000000      0.000000
      0.00000      2.71500      2.71500        -0.000000     -0.000000      0.000000
      2.71500      2.71500      0.00000         0.000000     -0.000000     -0.000000
      2.71500      0.00000      2.71500        -0.000000     -0.000000     -0.000000
      4.07250      1.35750      4.07250        -0.000000     -0.000000     -0.000000
      1.35750      1.35750      1.35750        -0.000000     -0.000000      0.000000
      1.35750      4.07250      4.07250         0.000000      0.000000     -0.000000
      4.07250      4.07250      1.35750        -0.000000      0.000000      0.000000
 -----------------------------------------------------------------------------------
    total drift:                               -0.000000     -0.000000     -0.000000


--------------------------------------------------------------------------------------------------------



  FREE ENERGIE OF THE ION-ELECTRON SYSTEM (eV)
  ---------------------------------------------------
  free  energy   TOTEN  =       -40.44017732 eV

  energy  without entropy=      -40.44017732  energy(sigma->0) =      -40.44017732
 


--------------------------------------------------------------------------------------------------------


    POTLOK:  cpu time    0.0063: real time    0.0063


--------------------------------------------------------------------------------------------------------


 writing wavefunctions
     LOOP+:  cpu time   32.2596: real time   17.5111
    4ORBIT:  cpu time    0.0000: real time    0.0000

 total amount of memory used by VASP on root node    45429. kBytes
========================================================================

   base      :      30000. kBytes
   nonl-proj :       7837. kBytes
   fftplans  :        574. kBytes
   grid      :        995. kBytes
   one-center:         24. kBytes
   wavefun   :       5999. kBytes
 
  
  
 General timing and accounting informations for this job:
 ========================================================
  
                  Total CPU time used (sec):       33.098
                            User time (sec):       32.161
                          System time (sec):        0.937
                         Elapsed time (sec):       18.287
  
                   Maximum memory used (kb):      113068.
                   Average memory used (kb):           0.
  
                          Minor page faults:        26480
                          Major page faults:            0
                 Voluntary context switches:         2314
